 Entering Gaussian System, Link 0=g16
 Input=neutral.com
 Output=neutral.log
 Initial command:
 /software/gaussian/G16-C.01/avx2/g16/l1.exe "/scratch/laplaza/9953173.slurm/Gau-336199.inp" -scrdir="/scratch/laplaza/9953173.slurm/"
 Entering Link 1 = /software/gaussian/G16-C.01/avx2/g16/l1.exe PID=    336200.
  
 Copyright (c) 1988-2019, Gaussian, Inc.  All Rights Reserved.
  
 This is part of the Gaussian(R) 16 program.  It is based on
 the Gaussian(R) 09 system (copyright 2009, Gaussian, Inc.),
 the Gaussian(R) 03 system (copyright 2003, Gaussian, Inc.),
 the Gaussian(R) 98 system (copyright 1998, Gaussian, Inc.),
 the Gaussian(R) 94 system (copyright 1995, Gaussian, Inc.),
 the Gaussian 92(TM) system (copyright 1992, Gaussian, Inc.),
 the Gaussian 90(TM) system (copyright 1990, Gaussian, Inc.),
 the Gaussian 88(TM) system (copyright 1988, Gaussian, Inc.),
 the Gaussian 86(TM) system (copyright 1986, Carnegie Mellon
 University), and the Gaussian 82(TM) system (copyright 1983,
 Carnegie Mellon University). Gaussian is a federally registered
 trademark of Gaussian, Inc.
  
 This software contains proprietary and confidential information,
 including trade secrets, belonging to Gaussian, Inc.
  
 This software is provided under written license and may be
 used, copied, transmitted, or stored only in accord with that
 written license.
  
 The following legend is applicable only to US Government
 contracts under FAR:
  
                    RESTRICTED RIGHTS LEGEND
  
 Use, reproduction and disclosure by the US Government is
 subject to restrictions as set forth in subparagraphs (a)
 and (c) of the Commercial Computer Software - Restricted
 Rights clause in FAR 52.227-19.
  
 Gaussian, Inc.
 340 Quinnipiac St., Bldg. 40, Wallingford CT 06492
  
  
 ---------------------------------------------------------------
 Warning -- This program may not be used in any manner that
 competes with the business of Gaussian, Inc. or will provide
 assistance to any competitor of Gaussian, Inc.  The licensee
 of this program is prohibited from giving any competitor of
 Gaussian, Inc. access to this program.  By using this program,
 the user acknowledges that Gaussian, Inc. is engaged in the
 business of creating and licensing software in the field of
 computational chemistry and represents and warrants to the
 licensee that it is not a competitor of Gaussian, Inc. and that
 it will not use this program in any manner prohibited above.
 ---------------------------------------------------------------
  

 Cite this work as:
 Gaussian 16, Revision C.01,
 M. J. Frisch, G. W. Trucks, H. B. Schlegel, G. E. Scuseria, 
 M. A. Robb, J. R. Cheeseman, G. Scalmani, V. Barone, 
 G. A. Petersson, H. Nakatsuji, X. Li, M. Caricato, A. V. Marenich, 
 J. Bloino, B. G. Janesko, R. Gomperts, B. Mennucci, H. P. Hratchian, 
 J. V. Ortiz, A. F. Izmaylov, J. L. Sonnenberg, D. Williams-Young, 
 F. Ding, F. Lipparini, F. Egidi, J. Goings, B. Peng, A. Petrone, 
 T. Henderson, D. Ranasinghe, V. G. Zakrzewski, J. Gao, N. Rega, 
 G. Zheng, W. Liang, M. Hada, M. Ehara, K. Toyota, R. Fukuda, 
 J. Hasegawa, M. Ishida, T. Nakajima, Y. Honda, O. Kitao, H. Nakai, 
 T. Vreven, K. Throssell, J. A. Montgomery, Jr., J. E. Peralta, 
 F. Ogliaro, M. J. Bearpark, J. J. Heyd, E. N. Brothers, K. N. Kudin, 
 V. N. Staroverov, T. A. Keith, R. Kobayashi, J. Normand, 
 K. Raghavachari, A. P. Rendell, J. C. Burant, S. S. Iyengar, 
 J. Tomasi, M. Cossi, J. M. Millam, M. Klene, C. Adamo, R. Cammi, 
 J. W. Ochterski, R. L. Martin, K. Morokuma, O. Farkas, 
 J. B. Foresman, and D. J. Fox, Gaussian, Inc., Wallingford CT, 2019.
 
 ******************************************
 Gaussian 16:  ES64L-G16RevC.01  3-Jul-2019
                23-Jan-2025 
 ******************************************
 %nprocshared=24
 Will use up to   24 processors via shared memory.
 %mem=24GB
 %chk=neutral.chk
 -------------------------------------------------------------------
 #p opt freq=noraman def2svp pbe1pbe em=gd3bj integral=ultrafinegrid
 -------------------------------------------------------------------
 1/18=20,19=15,26=4,38=1/1,3;
 2/9=110,12=2,17=6,18=5,40=1/2;
 3/5=43,7=101,11=2,25=1,30=1,71=1,74=-13,75=-5,124=41/1,2,3;
 4//1;
 5/5=2,38=5/2;
 6/7=2,8=2,9=2,10=2,28=1/1;
 7//1,2,3,16;
 1/18=20,19=15,26=4/3(2);
 2/9=110/2;
 99//99;
 2/9=110/2;
 3/5=43,7=101,11=2,25=1,30=1,71=1,74=-13,75=-5,124=41/1,2,3;
 4/5=5,16=3,69=1/1;
 5/5=2,38=5/2;
 7//1,2,3,16;
 1/18=20,19=15,26=4/3(-5);
 2/9=110/2;
 6/7=2,8=2,9=2,10=2,19=2,28=1/1;
 99/9=1/99;
 Leave Link    1 at Thu Jan 23 18:21:54 2025, MaxMem=  3221225472 cpu:               2.0 elap:               0.1
 (Enter /software/gaussian/G16-C.01/avx2/g16/l101.exe)
 -------
 neutral
 -------
 Symbolic Z-matrix:
 Charge =  0 Multiplicity = 1
 C                     2.32354   2.33204   2.97452 
 C                     2.1426    1.78138   1.58861 
 C                     2.50567   2.5445    0.46505 
 C                     2.27826   2.01086  -0.81041 
 C                     1.69748   0.72825  -0.97972 
 C                     1.43499   0.19509  -2.34003 
 C                     1.30868   0.0173    0.20928 
 C                     0.63521  -1.28262   0.09558 
 C                     1.39986  -2.46647   0.17329 
 C                     2.90534  -2.42293   0.35742 
 C                     0.76385  -3.69142   0.07692 
 C                    -0.621    -3.78179  -0.0935 
 C                    -1.39602  -2.65114  -0.14208 
 C                    -2.89096  -2.7846   -0.26703 
 C                    -0.77243  -1.36263  -0.07464 
 B                    -1.63085  -0.02443  -0.13889 
 C                    -2.4227    0.25314  -1.45131 
 C                    -3.01261   1.40999  -1.79386 
 C                    -2.95687   2.7216   -1.10407 
 C                    -2.63726   2.9901    0.18139 
 C                    -2.22208   2.07335   1.24198 
 C                    -1.77122   0.8383    1.16331 
 N                     1.54466   0.57647   1.42849 
 H                     1.56007   3.1312    3.17321 
 H                     2.19401   1.54704   3.70011 
 H                     3.34651   2.76218   3.06744 
 H                     2.93461   3.49837   0.58074 
 H                     2.55684   2.61862  -1.67582 
 H                     1.73783  -0.86546  -2.39282 
 H                     2.0218    0.75996  -3.10358 
 H                     0.36169   0.29899  -2.5901 
 H                     3.35896  -1.88383  -0.50989 
 H                     3.15458  -1.88306   1.30266 
 H                     3.34339  -3.44798   0.406 
 H                     1.34082  -4.63525   0.11792 
 H                    -1.06509  -4.74976  -0.15377 
 H                    -3.21892  -3.79899   0.04941 
 H                    -3.18572  -2.66874  -1.30695 
 H                    -3.43452  -2.04656   0.3551 
 H                    -2.48296  -0.52844  -2.16267 
 H                    -3.4898    1.42562  -2.75277 
 H                    -3.31303   3.56087  -1.66894 
 H                    -2.7411    4.01756   0.4741 
 H                    -2.21104   2.49553   2.24568 
 H                    -1.42436   0.35541   2.04845 
 
 ITRead=  0  0  0  0  0  0  0  0  0  0  0  0  0  0  0  0  0  0  0  0
 ITRead=  0  0  0  0  0  0  0  0  0  0  0  0  0  0  0  0  0  0  0  0
 ITRead=  0  0  0  0  0
 MicOpt= -1 -1 -1 -1 -1 -1 -1 -1 -1 -1 -1 -1 -1 -1 -1 -1 -1 -1 -1 -1
 MicOpt= -1 -1 -1 -1 -1 -1 -1 -1 -1 -1 -1 -1 -1 -1 -1 -1 -1 -1 -1 -1
 MicOpt= -1 -1 -1 -1 -1
 NAtoms=     45 NQM=       45 NQMF=       0 NMMI=      0 NMMIF=      0
                NMic=       0 NMicF=      0.
                    Isotopes and Nuclear Properties:
 (Nuclear quadrupole moments (NQMom) in fm**2, nuclear magnetic moments (NMagM)
  in nuclear magnetons)

  Atom         1           2           3           4           5           6           7           8           9          10
 IAtWgt=          12          12          12          12          12          12          12          12          12          12
 AtmWgt=  12.0000000  12.0000000  12.0000000  12.0000000  12.0000000  12.0000000  12.0000000  12.0000000  12.0000000  12.0000000
 NucSpn=           0           0           0           0           0           0           0           0           0           0
 AtZEff=  -0.0000000  -0.0000000  -0.0000000  -0.0000000  -0.0000000  -0.0000000  -0.0000000  -0.0000000  -0.0000000  -0.0000000
 NQMom=    0.0000000   0.0000000   0.0000000   0.0000000   0.0000000   0.0000000   0.0000000   0.0000000   0.0000000   0.0000000
 NMagM=    0.0000000   0.0000000   0.0000000   0.0000000   0.0000000   0.0000000   0.0000000   0.0000000   0.0000000   0.0000000
 AtZNuc=   6.0000000   6.0000000   6.0000000   6.0000000   6.0000000   6.0000000   6.0000000   6.0000000   6.0000000   6.0000000

  Atom        11          12          13          14          15          16          17          18          19          20
 IAtWgt=          12          12          12          12          12          11          12          12          12          12
 AtmWgt=  12.0000000  12.0000000  12.0000000  12.0000000  12.0000000  11.0093053  12.0000000  12.0000000  12.0000000  12.0000000
 NucSpn=           0           0           0           0           0           3           0           0           0           0
 AtZEff=  -0.0000000  -0.0000000  -0.0000000  -0.0000000  -0.0000000  -0.0000000  -0.0000000  -0.0000000  -0.0000000  -0.0000000
 NQMom=    0.0000000   0.0000000   0.0000000   0.0000000   0.0000000   4.0590000   0.0000000   0.0000000   0.0000000   0.0000000
 NMagM=    0.0000000   0.0000000   0.0000000   0.0000000   0.0000000   2.6886370   0.0000000   0.0000000   0.0000000   0.0000000
 AtZNuc=   6.0000000   6.0000000   6.0000000   6.0000000   6.0000000   5.0000000   6.0000000   6.0000000   6.0000000   6.0000000

  Atom        21          22          23          24          25          26          27          28          29          30
 IAtWgt=          12          12          14           1           1           1           1           1           1           1
 AtmWgt=  12.0000000  12.0000000  14.0030740   1.0078250   1.0078250   1.0078250   1.0078250   1.0078250   1.0078250   1.0078250
 NucSpn=           0           0           2           1           1           1           1           1           1           1
 AtZEff=  -0.0000000  -0.0000000  -0.0000000  -0.0000000  -0.0000000  -0.0000000  -0.0000000  -0.0000000  -0.0000000  -0.0000000
 NQMom=    0.0000000   0.0000000   2.0440000   0.0000000   0.0000000   0.0000000   0.0000000   0.0000000   0.0000000   0.0000000
 NMagM=    0.0000000   0.0000000   0.4037610   2.7928460   2.7928460   2.7928460   2.7928460   2.7928460   2.7928460   2.7928460
 AtZNuc=   6.0000000   6.0000000   7.0000000   1.0000000   1.0000000   1.0000000   1.0000000   1.0000000   1.0000000   1.0000000

  Atom        31          32          33          34          35          36          37          38          39          40
 IAtWgt=           1           1           1           1           1           1           1           1           1           1
 AtmWgt=   1.0078250   1.0078250   1.0078250   1.0078250   1.0078250   1.0078250   1.0078250   1.0078250   1.0078250   1.0078250
 NucSpn=           1           1           1           1           1           1           1           1           1           1
 AtZEff=  -0.0000000  -0.0000000  -0.0000000  -0.0000000  -0.0000000  -0.0000000  -0.0000000  -0.0000000  -0.0000000  -0.0000000
 NQMom=    0.0000000   0.0000000   0.0000000   0.0000000   0.0000000   0.0000000   0.0000000   0.0000000   0.0000000   0.0000000
 NMagM=    2.7928460   2.7928460   2.7928460   2.7928460   2.7928460   2.7928460   2.7928460   2.7928460   2.7928460   2.7928460
 AtZNuc=   1.0000000   1.0000000   1.0000000   1.0000000   1.0000000   1.0000000   1.0000000   1.0000000   1.0000000   1.0000000

  Atom        41          42          43          44          45
 IAtWgt=           1           1           1           1           1
 AtmWgt=   1.0078250   1.0078250   1.0078250   1.0078250   1.0078250
 NucSpn=           1           1           1           1           1
 AtZEff=  -0.0000000  -0.0000000  -0.0000000  -0.0000000  -0.0000000
 NQMom=    0.0000000   0.0000000   0.0000000   0.0000000   0.0000000
 NMagM=    2.7928460   2.7928460   2.7928460   2.7928460   2.7928460
 AtZNuc=   1.0000000   1.0000000   1.0000000   1.0000000   1.0000000
 Leave Link  101 at Thu Jan 23 18:21:55 2025, MaxMem=  3221225472 cpu:              15.7 elap:               0.7
 (Enter /software/gaussian/G16-C.01/avx2/g16/l103.exe)

 GradGradGradGradGradGradGradGradGradGradGradGradGradGradGradGradGradGrad
 Berny optimization.
 Initialization pass.
                           ----------------------------
                           !    Initial Parameters    !
                           ! (Angstroms and Degrees)  !
 --------------------------                            --------------------------
 ! Name  Definition              Value          Derivative Info.                !
 --------------------------------------------------------------------------------
 ! R1    R(1,2)                  1.5022         estimate D2E/DX2                !
 ! R2    R(1,24)                 1.123          estimate D2E/DX2                !
 ! R3    R(1,25)                 1.0768         estimate D2E/DX2                !
 ! R4    R(1,26)                 1.1136         estimate D2E/DX2                !
 ! R5    R(2,3)                  1.4059         estimate D2E/DX2                !
 ! R6    R(2,23)                 1.3546         estimate D2E/DX2                !
 ! R7    R(3,4)                  1.4012         estimate D2E/DX2                !
 ! R8    R(3,27)                 1.0523         estimate D2E/DX2                !
 ! R9    R(4,5)                  1.4181         estimate D2E/DX2                !
 ! R10   R(4,28)                 1.0936         estimate D2E/DX2                !
 ! R11   R(5,6)                  1.4845         estimate D2E/DX2                !
 ! R12   R(5,7)                  1.4389         estimate D2E/DX2                !
 ! R13   R(6,29)                 1.1042         estimate D2E/DX2                !
 ! R14   R(6,30)                 1.1164         estimate D2E/DX2                !
 ! R15   R(6,31)                 1.1069         estimate D2E/DX2                !
 ! R16   R(7,8)                  1.4684         estimate D2E/DX2                !
 ! R17   R(7,23)                 1.3619         estimate D2E/DX2                !
 ! R18   R(8,9)                  1.4115         estimate D2E/DX2                !
 ! R19   R(8,15)                 1.4202         estimate D2E/DX2                !
 ! R20   R(9,10)                 1.5173         estimate D2E/DX2                !
 ! R21   R(9,11)                 1.3836         estimate D2E/DX2                !
 ! R22   R(10,32)                1.1174         estimate D2E/DX2                !
 ! R23   R(10,33)                1.1167         estimate D2E/DX2                !
 ! R24   R(10,34)                1.1158         estimate D2E/DX2                !
 ! R25   R(11,12)                1.3982         estimate D2E/DX2                !
 ! R26   R(11,35)                1.107          estimate D2E/DX2                !
 ! R27   R(12,13)                1.3716         estimate D2E/DX2                !
 ! R28   R(12,36)                1.0667         estimate D2E/DX2                !
 ! R29   R(13,14)                1.5061         estimate D2E/DX2                !
 ! R30   R(13,15)                1.4331         estimate D2E/DX2                !
 ! R31   R(14,37)                1.1121         estimate D2E/DX2                !
 ! R32   R(14,38)                1.0871         estimate D2E/DX2                !
 ! R33   R(14,39)                1.1078         estimate D2E/DX2                !
 ! R34   R(15,16)                1.5912         estimate D2E/DX2                !
 ! R35   R(16,17)                1.5577         estimate D2E/DX2                !
 ! R36   R(16,22)                1.5684         estimate D2E/DX2                !
 ! R37   R(17,18)                1.343          estimate D2E/DX2                !
 ! R38   R(17,40)                1.0586         estimate D2E/DX2                !
 ! R39   R(18,19)                1.483          estimate D2E/DX2                !
 ! R40   R(18,41)                1.0712         estimate D2E/DX2                !
 ! R41   R(19,20)                1.3515         estimate D2E/DX2                !
 ! R42   R(19,42)                1.0725         estimate D2E/DX2                !
 ! R43   R(20,21)                1.4621         estimate D2E/DX2                !
 ! R44   R(20,43)                1.0734         estimate D2E/DX2                !
 ! R45   R(21,22)                1.3171         estimate D2E/DX2                !
 ! R46   R(21,44)                1.0889         estimate D2E/DX2                !
 ! R47   R(22,45)                1.0663         estimate D2E/DX2                !
 ! A1    A(2,1,24)             110.0122         estimate D2E/DX2                !
 ! A2    A(2,1,25)             109.8741         estimate D2E/DX2                !
 ! A3    A(2,1,26)             109.2208         estimate D2E/DX2                !
 ! A4    A(24,1,25)            108.5297         estimate D2E/DX2                !
 ! A5    A(24,1,26)            109.5656         estimate D2E/DX2                !
 ! A6    A(25,1,26)            109.6248         estimate D2E/DX2                !
 ! A7    A(1,2,3)              120.4788         estimate D2E/DX2                !
 ! A8    A(1,2,23)             119.2265         estimate D2E/DX2                !
 ! A9    A(3,2,23)             120.1549         estimate D2E/DX2                !
 ! A10   A(2,3,4)              118.6091         estimate D2E/DX2                !
 ! A11   A(2,3,27)             120.6273         estimate D2E/DX2                !
 ! A12   A(4,3,27)             120.7629         estimate D2E/DX2                !
 ! A13   A(3,4,5)              121.306          estimate D2E/DX2                !
 ! A14   A(3,4,28)             117.8628         estimate D2E/DX2                !
 ! A15   A(5,4,28)             120.8299         estimate D2E/DX2                !
 ! A16   A(4,5,6)              120.4416         estimate D2E/DX2                !
 ! A17   A(4,5,7)              117.3161         estimate D2E/DX2                !
 ! A18   A(6,5,7)              122.1405         estimate D2E/DX2                !
 ! A19   A(5,6,29)             109.8934         estimate D2E/DX2                !
 ! A20   A(5,6,30)             110.6138         estimate D2E/DX2                !
 ! A21   A(5,6,31)             110.1674         estimate D2E/DX2                !
 ! A22   A(29,6,30)            108.0051         estimate D2E/DX2                !
 ! A23   A(29,6,31)            110.1987         estimate D2E/DX2                !
 ! A24   A(30,6,31)            107.9171         estimate D2E/DX2                !
 ! A25   A(5,7,8)              119.8247         estimate D2E/DX2                !
 ! A26   A(5,7,23)             119.3449         estimate D2E/DX2                !
 ! A27   A(8,7,23)             120.8135         estimate D2E/DX2                !
 ! A28   A(7,8,9)              119.3255         estimate D2E/DX2                !
 ! A29   A(7,8,15)             120.9136         estimate D2E/DX2                !
 ! A30   A(9,8,15)             119.7565         estimate D2E/DX2                !
 ! A31   A(8,9,10)             121.3403         estimate D2E/DX2                !
 ! A32   A(8,9,11)             119.3217         estimate D2E/DX2                !
 ! A33   A(10,9,11)            119.3379         estimate D2E/DX2                !
 ! A34   A(9,10,32)            108.8105         estimate D2E/DX2                !
 ! A35   A(9,10,33)            109.758          estimate D2E/DX2                !
 ! A36   A(9,10,34)            111.6198         estimate D2E/DX2                !
 ! A37   A(32,10,33)           109.4601         estimate D2E/DX2                !
 ! A38   A(32,10,34)           108.5201         estimate D2E/DX2                !
 ! A39   A(33,10,34)           108.6415         estimate D2E/DX2                !
 ! A40   A(9,11,12)            121.3994         estimate D2E/DX2                !
 ! A41   A(9,11,35)            120.8433         estimate D2E/DX2                !
 ! A42   A(12,11,35)           117.7515         estimate D2E/DX2                !
 ! A43   A(11,12,13)           120.7082         estimate D2E/DX2                !
 ! A44   A(11,12,36)           118.5475         estimate D2E/DX2                !
 ! A45   A(13,12,36)           120.7162         estimate D2E/DX2                !
 ! A46   A(12,13,14)           119.3895         estimate D2E/DX2                !
 ! A47   A(12,13,15)           119.579          estimate D2E/DX2                !
 ! A48   A(14,13,15)           121.0314         estimate D2E/DX2                !
 ! A49   A(13,14,37)           110.4843         estimate D2E/DX2                !
 ! A50   A(13,14,38)           109.8196         estimate D2E/DX2                !
 ! A51   A(13,14,39)           112.4212         estimate D2E/DX2                !
 ! A52   A(37,14,38)           106.8261         estimate D2E/DX2                !
 ! A53   A(37,14,39)           107.65           estimate D2E/DX2                !
 ! A54   A(38,14,39)           109.4622         estimate D2E/DX2                !
 ! A55   A(8,15,13)            119.1835         estimate D2E/DX2                !
 ! A56   A(8,15,16)            119.4853         estimate D2E/DX2                !
 ! A57   A(13,15,16)           121.3006         estimate D2E/DX2                !
 ! A58   A(15,16,17)           117.2665         estimate D2E/DX2                !
 ! A59   A(15,16,22)           118.5151         estimate D2E/DX2                !
 ! A60   A(17,16,22)           123.7814         estimate D2E/DX2                !
 ! A61   A(16,17,18)           126.2762         estimate D2E/DX2                !
 ! A62   A(16,17,40)           117.6167         estimate D2E/DX2                !
 ! A63   A(18,17,40)           116.0783         estimate D2E/DX2                !
 ! A64   A(17,18,19)           128.8071         estimate D2E/DX2                !
 ! A65   A(17,18,41)           115.8857         estimate D2E/DX2                !
 ! A66   A(19,18,41)           114.8481         estimate D2E/DX2                !
 ! A67   A(18,19,20)           128.8289         estimate D2E/DX2                !
 ! A68   A(18,19,42)           115.7623         estimate D2E/DX2                !
 ! A69   A(20,19,42)           115.0865         estimate D2E/DX2                !
 ! A70   A(19,20,21)           129.2361         estimate D2E/DX2                !
 ! A71   A(19,20,43)           115.2559         estimate D2E/DX2                !
 ! A72   A(21,20,43)           115.4583         estimate D2E/DX2                !
 ! A73   A(20,21,22)           129.9281         estimate D2E/DX2                !
 ! A74   A(20,21,44)           115.3665         estimate D2E/DX2                !
 ! A75   A(22,21,44)           114.5272         estimate D2E/DX2                !
 ! A76   A(16,22,21)           126.5868         estimate D2E/DX2                !
 ! A77   A(16,22,45)           114.2685         estimate D2E/DX2                !
 ! A78   A(21,22,45)           119.1053         estimate D2E/DX2                !
 ! A79   A(2,23,7)             123.1956         estimate D2E/DX2                !
 ! D1    D(24,1,2,3)            72.5455         estimate D2E/DX2                !
 ! D2    D(24,1,2,23)         -103.163          estimate D2E/DX2                !
 ! D3    D(25,1,2,3)          -168.0288         estimate D2E/DX2                !
 ! D4    D(25,1,2,23)           16.2627         estimate D2E/DX2                !
 ! D5    D(26,1,2,3)           -47.7477         estimate D2E/DX2                !
 ! D6    D(26,1,2,23)          136.5437         estimate D2E/DX2                !
 ! D7    D(1,2,3,4)           -177.873          estimate D2E/DX2                !
 ! D8    D(1,2,3,27)             1.819          estimate D2E/DX2                !
 ! D9    D(23,2,3,4)            -2.2044         estimate D2E/DX2                !
 ! D10   D(23,2,3,27)          177.4876         estimate D2E/DX2                !
 ! D11   D(1,2,23,7)           178.2522         estimate D2E/DX2                !
 ! D12   D(3,2,23,7)             2.5295         estimate D2E/DX2                !
 ! D13   D(2,3,4,5)             -0.1289         estimate D2E/DX2                !
 ! D14   D(2,3,4,28)           179.4507         estimate D2E/DX2                !
 ! D15   D(27,3,4,5)          -179.8205         estimate D2E/DX2                !
 ! D16   D(27,3,4,28)           -0.2409         estimate D2E/DX2                !
 ! D17   D(3,4,5,6)            178.5202         estimate D2E/DX2                !
 ! D18   D(3,4,5,7)              2.1106         estimate D2E/DX2                !
 ! D19   D(28,4,5,6)            -1.0469         estimate D2E/DX2                !
 ! D20   D(28,4,5,7)          -177.4565         estimate D2E/DX2                !
 ! D21   D(4,5,6,29)           136.6655         estimate D2E/DX2                !
 ! D22   D(4,5,6,30)            17.501          estimate D2E/DX2                !
 ! D23   D(4,5,6,31)          -101.7283         estimate D2E/DX2                !
 ! D24   D(7,5,6,29)           -47.1022         estimate D2E/DX2                !
 ! D25   D(7,5,6,30)          -166.2667         estimate D2E/DX2                !
 ! D26   D(7,5,6,31)            74.504          estimate D2E/DX2                !
 ! D27   D(4,5,7,8)            176.6581         estimate D2E/DX2                !
 ! D28   D(4,5,7,23)            -1.8616         estimate D2E/DX2                !
 ! D29   D(6,5,7,8)              0.3139         estimate D2E/DX2                !
 ! D30   D(6,5,7,23)          -178.2058         estimate D2E/DX2                !
 ! D31   D(5,7,8,9)             95.3062         estimate D2E/DX2                !
 ! D32   D(5,7,8,15)           -85.4624         estimate D2E/DX2                !
 ! D33   D(23,7,8,9)           -86.1963         estimate D2E/DX2                !
 ! D34   D(23,7,8,15)           93.0351         estimate D2E/DX2                !
 ! D35   D(5,7,23,2)            -0.4301         estimate D2E/DX2                !
 ! D36   D(8,7,23,2)          -178.9347         estimate D2E/DX2                !
 ! D37   D(7,8,9,10)            -0.6457         estimate D2E/DX2                !
 ! D38   D(7,8,9,11)           179.484          estimate D2E/DX2                !
 ! D39   D(15,8,9,10)         -179.8861         estimate D2E/DX2                !
 ! D40   D(15,8,9,11)            0.2436         estimate D2E/DX2                !
 ! D41   D(7,8,15,13)         -178.181          estimate D2E/DX2                !
 ! D42   D(7,8,15,16)           -0.1673         estimate D2E/DX2                !
 ! D43   D(9,8,15,13)            1.047          estimate D2E/DX2                !
 ! D44   D(9,8,15,16)          179.0607         estimate D2E/DX2                !
 ! D45   D(8,9,10,32)          -60.7397         estimate D2E/DX2                !
 ! D46   D(8,9,10,33)           59.0168         estimate D2E/DX2                !
 ! D47   D(8,9,10,34)          179.5277         estimate D2E/DX2                !
 ! D48   D(11,9,10,32)         119.1306         estimate D2E/DX2                !
 ! D49   D(11,9,10,33)        -121.1129         estimate D2E/DX2                !
 ! D50   D(11,9,10,34)          -0.602          estimate D2E/DX2                !
 ! D51   D(8,9,11,12)           -0.1144         estimate D2E/DX2                !
 ! D52   D(8,9,11,35)          178.9887         estimate D2E/DX2                !
 ! D53   D(10,9,11,12)        -179.9874         estimate D2E/DX2                !
 ! D54   D(10,9,11,35)          -0.8843         estimate D2E/DX2                !
 ! D55   D(9,11,12,13)          -1.3857         estimate D2E/DX2                !
 ! D56   D(9,11,12,36)        -179.4691         estimate D2E/DX2                !
 ! D57   D(35,11,12,13)        179.4845         estimate D2E/DX2                !
 ! D58   D(35,11,12,36)          1.4011         estimate D2E/DX2                !
 ! D59   D(11,12,13,14)       -177.3811         estimate D2E/DX2                !
 ! D60   D(11,12,13,15)          2.6796         estimate D2E/DX2                !
 ! D61   D(36,12,13,14)          0.6606         estimate D2E/DX2                !
 ! D62   D(36,12,13,15)       -179.2787         estimate D2E/DX2                !
 ! D63   D(12,13,14,37)         19.9779         estimate D2E/DX2                !
 ! D64   D(12,13,14,38)        -97.6096         estimate D2E/DX2                !
 ! D65   D(12,13,14,39)        140.261          estimate D2E/DX2                !
 ! D66   D(15,13,14,37)       -160.0837         estimate D2E/DX2                !
 ! D67   D(15,13,14,38)         82.3288         estimate D2E/DX2                !
 ! D68   D(15,13,14,39)        -39.8006         estimate D2E/DX2                !
 ! D69   D(12,13,15,8)          -2.5091         estimate D2E/DX2                !
 ! D70   D(12,13,15,16)        179.5145         estimate D2E/DX2                !
 ! D71   D(14,13,15,8)         177.5526         estimate D2E/DX2                !
 ! D72   D(14,13,15,16)         -0.4238         estimate D2E/DX2                !
 ! D73   D(8,15,16,17)         118.5089         estimate D2E/DX2                !
 ! D74   D(8,15,16,22)         -68.7869         estimate D2E/DX2                !
 ! D75   D(13,15,16,17)        -63.5207         estimate D2E/DX2                !
 ! D76   D(13,15,16,22)        109.1836         estimate D2E/DX2                !
 ! D77   D(15,16,17,18)       -167.8934         estimate D2E/DX2                !
 ! D78   D(15,16,17,40)         10.0673         estimate D2E/DX2                !
 ! D79   D(22,16,17,18)         19.822          estimate D2E/DX2                !
 ! D80   D(22,16,17,40)       -162.2173         estimate D2E/DX2                !
 ! D81   D(15,16,22,21)        166.5964         estimate D2E/DX2                !
 ! D82   D(15,16,22,45)        -11.0825         estimate D2E/DX2                !
 ! D83   D(17,16,22,21)        -21.209          estimate D2E/DX2                !
 ! D84   D(17,16,22,45)        161.1121         estimate D2E/DX2                !
 ! D85   D(16,17,18,19)          6.4838         estimate D2E/DX2                !
 ! D86   D(16,17,18,41)        178.2328         estimate D2E/DX2                !
 ! D87   D(40,17,18,19)       -171.5045         estimate D2E/DX2                !
 ! D88   D(40,17,18,41)          0.2446         estimate D2E/DX2                !
 ! D89   D(17,18,19,20)        -20.5921         estimate D2E/DX2                !
 ! D90   D(17,18,19,42)        166.312          estimate D2E/DX2                !
 ! D91   D(41,18,19,20)        167.5878         estimate D2E/DX2                !
 ! D92   D(41,18,19,42)         -5.508          estimate D2E/DX2                !
 ! D93   D(18,19,20,21)          1.8784         estimate D2E/DX2                !
 ! D94   D(18,19,20,43)       -175.4111         estimate D2E/DX2                !
 ! D95   D(42,19,20,21)        175.013          estimate D2E/DX2                !
 ! D96   D(42,19,20,43)         -2.2765         estimate D2E/DX2                !
 ! D97   D(19,20,21,22)         16.9634         estimate D2E/DX2                !
 ! D98   D(19,20,21,44)       -168.2139         estimate D2E/DX2                !
 ! D99   D(43,20,21,22)       -165.7517         estimate D2E/DX2                !
 ! D100  D(43,20,21,44)          9.071          estimate D2E/DX2                !
 ! D101  D(20,21,22,16)         -3.614          estimate D2E/DX2                !
 ! D102  D(20,21,22,45)        173.9642         estimate D2E/DX2                !
 ! D103  D(44,21,22,16)       -178.472          estimate D2E/DX2                !
 ! D104  D(44,21,22,45)         -0.8938         estimate D2E/DX2                !
 --------------------------------------------------------------------------------
 Trust Radius=3.00D-01 FncErr=1.00D-07 GrdErr=1.00D-06 EigMax=2.50D+02 EigMin=1.00D-04
 Number of steps in this run=    240 maximum allowed number of steps=    270.
 GradGradGradGradGradGradGradGradGradGradGradGradGradGradGradGradGradGrad

 Leave Link  103 at Thu Jan 23 18:21:55 2025, MaxMem=  3221225472 cpu:               0.4 elap:               0.0
 (Enter /software/gaussian/G16-C.01/avx2/g16/l202.exe)
                          Input orientation:                          
 ---------------------------------------------------------------------
 Center     Atomic      Atomic             Coordinates (Angstroms)
 Number     Number       Type             X           Y           Z
 ---------------------------------------------------------------------
      1          6           0        2.323536    2.332035    2.974516
      2          6           0        2.142604    1.781378    1.588612
      3          6           0        2.505670    2.544503    0.465047
      4          6           0        2.278263    2.010861   -0.810407
      5          6           0        1.697477    0.728247   -0.979715
      6          6           0        1.434989    0.195094   -2.340030
      7          6           0        1.308677    0.017296    0.209281
      8          6           0        0.635210   -1.282624    0.095579
      9          6           0        1.399857   -2.466475    0.173285
     10          6           0        2.905338   -2.422925    0.357422
     11          6           0        0.763849   -3.691422    0.076918
     12          6           0       -0.621002   -3.781795   -0.093504
     13          6           0       -1.396020   -2.651138   -0.142081
     14          6           0       -2.890963   -2.784598   -0.267032
     15          6           0       -0.772430   -1.362632   -0.074637
     16          5           0       -1.630849   -0.024434   -0.138893
     17          6           0       -2.422698    0.253138   -1.451309
     18          6           0       -3.012611    1.409986   -1.793860
     19          6           0       -2.956870    2.721596   -1.104067
     20          6           0       -2.637263    2.990105    0.181393
     21          6           0       -2.222084    2.073354    1.241981
     22          6           0       -1.771222    0.838295    1.163308
     23          7           0        1.544664    0.576465    1.428494
     24          1           0        1.560069    3.131200    3.173211
     25          1           0        2.194007    1.547037    3.700114
     26          1           0        3.346513    2.762180    3.067441
     27          1           0        2.934606    3.498374    0.580738
     28          1           0        2.556840    2.618616   -1.675824
     29          1           0        1.737834   -0.865465   -2.392819
     30          1           0        2.021799    0.759962   -3.103584
     31          1           0        0.361690    0.298989   -2.590104
     32          1           0        3.358958   -1.883829   -0.509887
     33          1           0        3.154580   -1.883064    1.302660
     34          1           0        3.343390   -3.447982    0.406005
     35          1           0        1.340821   -4.635254    0.117921
     36          1           0       -1.065092   -4.749758   -0.153767
     37          1           0       -3.218920   -3.798986    0.049411
     38          1           0       -3.185717   -2.668739   -1.306948
     39          1           0       -3.434523   -2.046564    0.355097
     40          1           0       -2.482958   -0.528444   -2.162667
     41          1           0       -3.489805    1.425622   -2.752770
     42          1           0       -3.313032    3.560874   -1.668935
     43          1           0       -2.741102    4.017558    0.474102
     44          1           0       -2.211039    2.495534    2.245682
     45          1           0       -1.424360    0.355409    2.048451
 ---------------------------------------------------------------------
                    Distance matrix (angstroms):
                    1          2          3          4          5
     1  C    0.000000
     2  C    1.502228   0.000000
     3  C    2.525024   1.405907   0.000000
     4  C    3.798795   2.413785   1.401168   0.000000
     5  C    4.312775   2.811321   2.457499   1.418124   0.000000
     6  C    5.796588   4.295491   3.812419   2.519497   1.484455
     7  C    3.746262   2.389555   2.808022   2.440115   1.438864
     8  C    4.919805   3.726861   4.275749   3.790445   2.515605
     9  C    5.632564   4.538621   5.139830   4.667524   3.409433
    10  C    5.458693   4.446770   4.984643   4.627689   3.629980
    11  C    6.863726   5.842750   6.486243   5.966308   4.639139
    12  C    7.447279   6.435521   7.078849   6.517250   5.147931
    13  C    6.955594   5.929955   6.525832   5.973378   4.657424
    14  C    7.992408   7.044740   7.619640   7.071957   5.822524
    15  C    5.703763   4.598764   5.128636   4.607444   3.360265
    16  B    5.557286   4.525946   4.906626   4.458084   3.514437
    17  C    6.814432   5.693735   5.762950   5.059582   4.174203
    18  C    7.215404   6.176997   6.069697   5.414940   4.828304
    19  C    6.683509   5.842873   5.686196   5.291313   5.064765
    20  C    5.730979   5.127223   5.169989   5.109303   5.025350
    21  C    4.871474   4.388155   4.814277   4.946647   4.701936
    22  C    4.720040   4.048250   4.657308   4.654975   4.078790
    23  N    2.465533   1.354617   2.392684   2.758322   2.417822
    24  H    1.122954   2.161555   2.927888   4.200021   4.799986
    25  H    1.076797   2.125088   3.399666   4.535089   4.776794
    26  H    1.113616   2.144366   2.743511   4.091864   4.820340
    27  H    2.732018   2.142697   1.052255   2.139806   3.411614
    28  H    4.664999   3.395452   2.142764   1.093580   2.190107
    29  H    6.274977   4.798063   4.514959   3.327061   2.130354
    30  H    6.285361   4.803602   4.019185   2.624725   2.148723
    31  H    6.240762   4.778158   4.355793   3.125872   2.135870
    32  H    5.566568   4.395106   4.613971   4.053002   3.131166
    33  H    4.610076   3.812349   4.552586   4.516153   3.761826
    34  H    6.406711   5.494238   6.051044   5.693252   4.697887
    35  H    7.594010   6.631663   7.281915   6.775797   5.486269
    36  H    8.451080   7.482042   8.144908   7.570678   6.190519
    37  H    8.767239   7.890218   8.554738   8.044416   6.762093
    38  H    8.584320   7.521889   7.918949   7.211122   5.957531
    39  H    7.693421   6.875976   7.508387   7.103310   5.984874
    40  H    7.594430   6.387738   6.421393   5.562903   4.522685
    41  H    8.210866   7.120266   6.895793   6.114399   5.526115
    42  H    7.405578   6.598650   6.280460   5.865337   5.796895
    43  H    5.894372   5.485729   5.449642   5.556152   5.712629
    44  H    4.595683   4.460490   5.041865   5.452377   5.366841
    45  H    4.337208   3.868860   4.769113   4.962157   4.365165
                    6          7          8          9         10
     6  C    0.000000
     7  C    2.558623   0.000000
     8  C    2.958966   1.468427   0.000000
     9  C    3.660865   2.485704   1.411463   0.000000
    10  C    4.036359   2.919923   2.553885   1.517325   0.000000
    11  C    4.625697   3.750860   2.412303   1.383578   2.504744
    12  C    5.008953   4.271818   2.803511   2.425926   3.805908
    13  C    4.576748   3.815676   2.460734   2.819661   4.336273
    14  C    5.647101   5.070943   3.849846   4.325069   5.841050
    15  C    3.525793   2.513129   1.420150   2.449238   3.851867
    16  B    3.780550   2.960368   2.602507   3.904638   5.155200
    17  C    3.959159   4.091007   3.755293   4.964627   6.230633
    18  C    4.642780   4.962428   4.911896   6.194068   7.371658
    19  C    5.215289   5.218526   5.511439   6.894112   7.935208
    20  C    5.545530   4.940527   5.382625   6.787685   7.749342
    21  C    5.452783   4.214275   4.554224   5.905135   6.876731
    22  C    4.792377   3.327159   3.380719   4.685872   5.758058
    23  N    3.789359   1.361925   2.461703   3.294845   3.463376
    24  H    6.247575   4.306330   5.459764   6.352888   6.370771
    25  H    6.235959   3.912777   4.840403   5.401618   5.238338
    26  H    6.283677   4.456034   5.704697   6.285256   5.867211
    27  H    4.657402   3.859991   5.327339   6.172592   5.925582
    28  H    2.751941   3.446505   4.695764   5.533169   5.447263
    29  H    1.104213   2.781073   2.753529   3.043411   3.369358
    30  H    1.116440   3.469175   4.040969   4.640537   4.784348
    31  H    1.106934   2.968618   3.128770   4.044985   4.750460
    32  H    3.372388   2.887063   2.854267   2.155059   1.117417
    33  H    4.532651   2.866044   2.857411   2.166774   1.116712
    34  H    4.945169   4.023296   3.481290   2.189711   1.115791
    35  H    5.420576   4.653558   3.426151   2.170289   2.720197
    36  H    5.956653   5.337733   3.869654   3.375844   4.630311
    37  H    6.581867   5.923571   4.603100   4.808745   6.284500
    38  H    5.533509   5.450992   4.299754   4.822809   6.319138
    39  H    6.000073   5.174816   4.148937   4.855987   6.351022
    40  H    3.988141   4.505603   3.923191   4.928376   6.242887
    41  H    5.092951   5.812276   5.697669   6.900653   8.085942
    42  H    5.858544   6.119218   6.493196   7.869817   8.864541
    43  H    6.322207   5.698503   6.295609   7.699397   8.565963
    44  H    6.293989   4.762036   5.196013   6.477263   7.343983
    45  H    5.240261   3.311549   3.276994   4.410836   5.415257
                   11         12         13         14         15
    11  C    0.000000
    12  C    1.398222   0.000000
    13  C    2.407320   1.371641   0.000000
    14  C    3.781307   2.485405   1.506081   0.000000
    15  C    2.793991   2.423971   1.433060   2.558747   0.000000
    16  B    4.384969   3.890965   2.637181   3.036908   1.591158
    17  C    5.296141   4.622815   3.347082   3.293877   2.688739
    18  C    6.617086   5.963689   4.672736   4.465483   3.957467
    19  C    7.507681   6.983667   5.676965   5.569842   4.744725
    20  C    7.498085   7.071032   5.785234   5.797641   4.742306
    21  C    6.595894   6.215284   4.991877   5.130714   3.954868
    22  C    5.303317   4.924207   3.744457   4.052783   2.715543
    23  N    4.544370   5.099119   4.640232   5.817762   3.374675
    24  H    7.534532   7.950975   7.291437   8.163555   6.015280
    25  H    6.527967   7.121254   6.728702   7.769056   5.613793
    26  H    7.567190   8.279877   7.880144   8.988414   6.622117
    27  H    7.527230   8.130056   7.556010   8.609978   6.148253
    28  H    6.789956   7.318994   6.763710   7.801153   5.431222
    29  H    3.877407   4.399538   4.251528   5.443143   3.452908
    30  H    5.613631   6.055785   5.664591   6.689183   4.635477
    31  H    4.816443   4.883799   4.217299   5.048260   3.220991
    32  H    3.216571   4.428965   4.830514   6.319168   4.186820
    33  H    3.238549   4.450783   4.835822   6.310729   4.193949
    34  H    2.611818   4.009657   4.837083   6.305571   4.638931
    35  H    1.106976   2.149847   3.390371   4.634772   3.900380
    36  H    2.125633   1.066678   2.124584   2.684862   3.400667
    37  H    3.984316   2.601902   2.162681   1.112059   3.454927
    38  H    4.308136   3.047803   2.135472   1.087073   3.008065
    39  H    4.517662   3.335891   2.183618   1.107789   2.781936
    40  H    5.055880   4.281659   3.125705   2.974917   2.825180
    41  H    7.230826   6.512980   5.274429   4.925795   4.725556
    42  H    8.500868   7.977705   6.677971   6.512180   5.765184
    43  H    8.477666   8.102278   6.830844   6.844054   5.755278
    44  H    7.199439   6.885119   5.731832   5.886920   4.726407
    45  H    5.005202   4.727558   3.720021   4.167977   2.807878
                   16         17         18         19         20
    16  B    0.000000
    17  C    1.557725   0.000000
    18  C    2.589545   1.342995   0.000000
    19  C    3.198527   2.549353   1.482984   0.000000
    20  C    3.194197   3.194174   2.557203   1.351538   0.000000
    21  C    2.580133   3.256877   3.206450   2.542453   1.462070
    22  C    1.568354   2.757364   3.257717   3.177039   2.518823
    23  N    3.591889   4.913020   5.643322   5.592786   4.986926
    24  H    5.577636   6.747730   6.967336   6.234230   5.156402
    25  H    5.642430   7.037421   7.570429   7.140817   6.148577
    26  H    6.543694   7.745850   8.117828   7.558820   6.647315
    27  H    5.811319   6.584943   6.735686   6.176685   5.609237
    28  H    5.185038   5.517399   5.700307   5.544232   5.528650
    29  H    4.139510   4.409959   5.301241   6.047159   6.374438
    30  H    4.769330   4.768693   5.242441   5.712549   6.121394
    31  H    3.175413   3.008616   3.640635   4.369229   4.890503
    32  H    5.337899   6.235419   7.286611   7.839176   7.758078
    33  H    5.332253   6.576757   7.646363   8.021537   7.651828
    34  H    6.063056   7.098991   8.296867   8.946356   8.790200
    35  H    5.491487   6.365762   7.691047   8.607360   8.600888
    36  H    4.759095   5.343751   6.665222   7.765502   7.905032
    37  H    4.099350   4.393841   5.529340   6.627004   6.815240
    38  H    3.282425   3.023309   4.111331   5.399003   5.876944
    39  H    2.754318   3.094433   4.091914   5.009257   5.102335
    40  H    2.252948   1.058551   2.043052   3.450795   4.230675
    41  H    3.520047   2.051155   1.071199   2.163744   3.432746
    42  H    4.245610   3.432371   2.175357   1.072527   2.050892
    43  H    4.236287   4.240218   3.466526   2.053458   1.073369
    44  H    3.517536   4.329074   4.258971   3.439213   2.165076
    45  H    2.229662   3.640804   4.289292   4.229160   3.449443
                   21         22         23         24         25
    21  C    0.000000
    22  C    1.317132   0.000000
    23  N    4.057567   3.336762   0.000000
    24  H    4.376456   4.516040   3.093694   0.000000
    25  H    5.081465   4.760329   2.554195   1.785798   0.000000
    26  H    5.900513   5.789496   3.272638   1.827224   1.790284
    27  H    5.390674   5.436931   3.344874   2.957209   3.753226
    28  H    5.625745   5.473786   3.851191   4.976890   5.493690
    29  H    6.126122   5.278477   4.088877   6.854606   6.569025
    30  H    6.214457   5.709598   4.560819   6.725632   6.851237
    31  H    4.950669   4.350663   4.198279   6.532482   6.669471
    32  H    7.062321   6.043864   3.619673   6.477016   5.554463
    33  H    6.675736   5.629276   2.942270   5.584288   4.293726
    34  H    7.884067   6.716021   4.525160   7.356854   6.092820
    35  H    7.678751   6.382584   5.377841   8.348693   7.195884
    36  H    7.059859   5.784432   6.138651   8.948171   8.069929
    37  H    6.074561   4.984072   6.613484   8.979106   8.438446
    38  H    5.469284   4.516885   6.355352   8.731185   8.472595
    39  H    4.385236   3.426687   5.729290   7.726380   7.468832
    40  H    4.292905   3.665604   5.508085   7.629590   7.781633
    41  H    4.240838   4.316729   6.599236   7.970412   8.600009
    42  H    3.446203   4.220333   6.488295   6.883176   7.950452
    43  H    2.153821   3.394611   5.578510   5.154697   6.392646
    44  H    1.088932   2.027662   4.296036   3.935179   4.734918
    45  H    2.058663   1.066288   3.041104   4.228110   4.152174
                   26         27         28         29         30
    26  H    0.000000
    27  H    2.625898   0.000000
    28  H    4.810692   2.451276   0.000000
    29  H    6.749970   5.414554   3.650160   0.000000
    30  H    6.621578   4.680422   2.404031   1.796618   0.000000
    31  H    6.854509   5.187504   3.321936   1.813463   1.797810
    32  H    5.863688   5.507963   4.719620   2.685245   3.937626
    33  H    4.972885   5.434100   5.430818   4.086471   5.261537
    34  H    6.756432   6.960567   6.461910   4.132870   5.636543
    35  H    8.212460   8.301220   7.570657   4.546729   6.320616
    36  H    9.288039   9.196128   8.350329   5.287484   6.970462
    37  H    9.760242   9.560317   8.804627   6.256153   7.628271
    38  H    9.555113   8.891287   7.814675   5.354649   6.488614
    39  H    8.744328   8.447665   7.860341   5.974890   7.043472
    40  H    8.494996   7.286393   5.961591   4.240476   4.778927
    41  H    9.077251   7.528720   6.256593   5.718990   5.562728
    42  H    8.211011   6.640626   5.945022   6.754829   6.193846
    43  H    6.735016   5.700402   5.886205   7.219696   6.789476
    44  H    5.624302   5.500489   6.174627   6.957413   7.038733
    45  H    5.439864   5.570726   5.902735   5.587028   6.211533
                   31         32         33         34         35
    31  H    0.000000
    32  H    4.251543   0.000000
    33  H    5.264523   1.824034   0.000000
    34  H    5.648628   1.812643   1.813452   0.000000
    35  H    5.713042   3.469490   3.502553   2.345824   0.000000
    36  H    5.784574   5.283237   5.305163   4.630625   2.423911
    37  H    6.048240   6.873800   6.772214   6.581358   4.636299
    38  H    4.799791   6.639591   6.901211   6.794900   5.136826
    39  H    5.346686   6.850260   6.658895   6.921464   5.437047
    40  H    2.993220   6.220670   6.754652   7.004863   6.057083
    41  H    4.016189   7.930230   8.458237   8.967855   8.264988
    42  H    4.999201   8.689282   8.960851   9.886222   9.593107
    43  H    5.731005   8.544316   8.382298   9.631198   9.573929
    44  H    5.901573   7.602424   6.989369   8.340352   8.245678
    45  H    4.970849   5.868510   5.151083   6.316237   6.023279
                   36         37         38         39         40
    36  H    0.000000
    37  H    2.363095   0.000000
    38  H    3.187086   1.765863   0.000000
    39  H    3.630482   1.791902   1.792037   0.000000
    40  H    4.885234   4.016389   2.409769   3.090194   0.000000
    41  H    7.125263   5.934824   4.352776   4.660254   2.276035
    42  H    8.741600   7.558380   6.241419   5.962786   4.201822
    43  H    8.948132   7.842642   6.933713   6.104798   5.261684
    44  H    7.717824   6.742434   6.343571   5.069702   5.352749
    45  H    5.571496   4.947282   4.848355   3.560572   4.431178
                   41         42         43         44         45
    41  H    0.000000
    42  H    2.401092   0.000000
    43  H    4.206113   2.264569   0.000000
    44  H    5.269200   4.203994   2.394999   0.000000
    45  H    5.335086   5.259377   4.198062   2.288646   0.000000
 Stoichiometry    C21H22BN
 Framework group  C1[X(C21H22BN)]
 Deg. of freedom   129
 Full point group                 C1      NOp   1
 Largest Abelian subgroup         C1      NOp   1
 Largest concise Abelian subgroup C1      NOp   1
                         Standard orientation:                         
 ---------------------------------------------------------------------
 Center     Atomic      Atomic             Coordinates (Angstroms)
 Number     Number       Type             X           Y           Z
 ---------------------------------------------------------------------
      1          6           0       -2.900379   -2.718578   -1.944205
      2          6           0       -2.146299   -2.267112   -0.725915
      3          6           0       -2.768877   -2.255882    0.534578
      4          6           0       -2.043550   -1.784776    1.636954
      5          6           0       -0.707911   -1.328373    1.499694
      6          6           0        0.031739   -0.802659    2.674492
      7          6           0       -0.144045   -1.324963    0.175922
      8          6           0        1.208141   -0.794863   -0.040559
      9          6           0        2.304631   -1.683498   -0.056811
     10          6           0        2.116180   -3.173491    0.159247
     11          6           0        3.577413   -1.185276   -0.271501
     12          6           0        3.800555    0.179920   -0.475139
     13          6           0        2.753248    1.065427   -0.495724
     14          6           0        3.021194    2.520667   -0.776364
     15          6           0        1.422835    0.593397   -0.249049
     16          5           0        0.179577    1.586416   -0.251773
     17          6           0        0.154454    2.701441    0.835698
     18          6           0       -0.891720    3.483582    1.147808
     19          6           0       -2.288087    3.408692    0.654053
     20          6           0       -2.760528    2.816506   -0.465219
     21          6           0       -2.039155    2.053924   -1.482932
     22          6           0       -0.845094    1.499985   -1.435967
     23          7           0       -0.887271   -1.787694   -0.867312
     24          1           0       -3.656548   -1.942023   -2.237796
     25          1           0       -2.218345   -2.859772   -2.765415
     26          1           0       -3.419106   -3.678071   -1.719625
     27          1           0       -3.760497   -2.589923    0.645692
     28          1           0       -2.542701   -1.772847    2.609900
     29          1           0        1.061686   -1.200749    2.678951
     30          1           0       -0.463971   -1.117325    3.624068
     31          1           0        0.049773    0.303861    2.650201
     32          1           0        1.671165   -3.337399    1.171036
     33          1           0        1.429778   -3.584106   -0.620044
     34          1           0        3.086010   -3.722605    0.105436
     35          1           0        4.457153   -1.857178   -0.272770
     36          1           0        4.799429    0.513404   -0.644970
     37          1           0        4.003287    2.644887   -1.283058
     38          1           0        3.077604    3.072081    0.158777
     39          1           0        2.247904    2.974930   -1.426643
     40          1           0        1.031241    2.845614    1.411015
     41          1           0       -0.733428    4.179586    1.946550
     42          1           0       -3.007939    3.984393    1.202410
     43          1           0       -3.807587    2.960501   -0.652443
     44          1           0       -2.598833    1.845148   -2.393397
     45          1           0       -0.521548    0.894963   -2.252200
 ---------------------------------------------------------------------
 Rotational constants (GHZ):           0.2913056           0.2831242           0.1837410
 Leave Link  202 at Thu Jan 23 18:21:55 2025, MaxMem=  3221225472 cpu:               0.8 elap:               0.0
 (Enter /software/gaussian/G16-C.01/avx2/g16/l301.exe)
 Standard basis: def2SVP (5D, 7F)
 Ernie: Thresh=  0.10000D-02 Tol=  0.10000D-05 Strict=F.
 There are   455 symmetry adapted cartesian basis functions of A   symmetry.
 There are   432 symmetry adapted basis functions of A   symmetry.
   432 basis functions,   729 primitive gaussians,   455 cartesian basis functions
    80 alpha electrons       80 beta electrons
       nuclear repulsion energy      1822.9869900730 Hartrees.
 IExCor= 1009 DFT=T Ex+Corr=PBE1PBE ExCW=0 ScaHFX=  0.250000
 ScaDFX=  0.750000  0.750000  1.000000  1.000000 ScalE2=  1.000000  1.000000
 IRadAn=      5 IRanWt=     -1 IRanGd=            0 ICorTp=0 IEmpDi=141
 NAtoms=   45 NActive=   45 NUniq=   45 SFac= 1.00D+00 NAtFMM=   60 NAOKFM=F Big=F
 Integral buffers will be    131072 words long.
 Raffenetti 2 integral format.
 Two-electron integral symmetry is turned on.
 R6Disp:  Grimme-D3(BJ) Dispersion energy=       -0.0572652731 Hartrees.
 Nuclear repulsion after empirical dispersion term =     1822.9297247999 Hartrees.
 Leave Link  301 at Thu Jan 23 18:21:55 2025, MaxMem=  3221225472 cpu:               1.2 elap:               0.1
 (Enter /software/gaussian/G16-C.01/avx2/g16/l302.exe)
 NPDir=0 NMtPBC=     1 NCelOv=     1 NCel=       1 NClECP=     1 NCelD=      1
         NCelK=      1 NCelE2=     1 NClLst=     1 CellRange=     0.0.
 One-electron integrals computed using PRISM.
 One-electron integral symmetry used in STVInt
   1 Symmetry operations used in ECPInt.
 ECPInt:  NShTT=   20910 NPrTT=   75056 LenC2=   19382 LenP2D=   48113.
 LDataN:  DoStor=T MaxTD1= 4 Len=   56
 NBasis=   432 RedAO= T EigKep=  2.15D-04  NBF=   432
 NBsUse=   432 1.00D-06 EigRej= -1.00D+00 NBFU=   432
 Precomputing XC quadrature grid using
 IXCGrd= 4 IRadAn=           5 IRanWt=          -1 IRanGd=           0 AccXCQ= 0.00D+00.
 Generated NRdTot=       0 NPtTot=           0 NUsed=           0 NTot=          32
 NSgBfM=   453   452   452   452   453 MxSgAt=    45 MxSgA2=    45.
 Leave Link  302 at Thu Jan 23 18:21:56 2025, MaxMem=  3221225472 cpu:              11.8 elap:               0.5
 (Enter /software/gaussian/G16-C.01/avx2/g16/l303.exe)
 DipDrv:  MaxL=1.
 Leave Link  303 at Thu Jan 23 18:21:56 2025, MaxMem=  3221225472 cpu:               1.8 elap:               0.1
 (Enter /software/gaussian/G16-C.01/avx2/g16/l401.exe)
 ExpMin= 8.36D-02 ExpMax= 1.71D+03 ExpMxC= 2.58D+02 IAcc=3 IRadAn=         5 AccDes= 0.00D+00
 Harris functional with IExCor= 1009 and IRadAn=       5 diagonalized for initial guess.
 HarFok:  IExCor= 1009 AccDes= 0.00D+00 IRadAn=         5 IDoV= 1 UseB2=F ITyADJ=14
 ICtDFT=  3500011 ScaDFX=  1.000000  1.000000  1.000000  1.000000
 FoFCou: FMM=F IPFlag=           0 FMFlag=      100000 FMFlg1=           0
         NFxFlg=           0 DoJE=T BraDBF=F KetDBF=T FulRan=T
         wScrn=  0.000000 ICntrl=       500 IOpCl=  0 I1Cent=   200000004 NGrid=           0
         NMat0=    1 NMatS0=      1 NMatT0=    0 NMatD0=    1 NMtDS0=    0 NMtDT0=    0
 Petite list used in FoFCou.
 Harris En= -891.710798615890    
 JPrj=0 DoOrth=F DoCkMO=F.
 Leave Link  401 at Thu Jan 23 18:21:57 2025, MaxMem=  3221225472 cpu:              32.6 elap:               1.4
 (Enter /software/gaussian/G16-C.01/avx2/g16/l502.exe)
 Integral symmetry usage will be decided dynamically.
 Closed shell SCF:
 Using DIIS extrapolation, IDIIS=  1040.
 NGot=  3221225472 LenX=  3220794540 LenY=  3220587060
 Requested convergence on RMS density matrix=1.00D-08 within 128 cycles.
 Requested convergence on MAX density matrix=1.00D-06.
 Requested convergence on             energy=1.00D-06.
 No special actions if energy rises.
 Fock matrices will be formed incrementally for  20 cycles.
 Integral accuracy reduced to 1.0D-05 until final iterations.

 Cycle   1  Pass 0  IDiag  1:
 FoFJK:  IHMeth= 1 ICntrl=       0 DoSepK=F KAlg= 0 I1Cent=           0 FoldK=F
 IRaf= 860000000 NMat=       1 IRICut=       1 DoRegI=T DoRafI=F ISym2E= 0 IDoP0=0 IntGTp=1.
 FoFCou: FMM=F IPFlag=           0 FMFlag=      100000 FMFlg1=           0
         NFxFlg=           0 DoJE=F BraDBF=F KetDBF=F FulRan=T
         wScrn=  0.000000 ICntrl=         0 IOpCl=  0 I1Cent=           0 NGrid=           0
         NMat0=    1 NMatS0=      1 NMatT0=    0 NMatD0=    1 NMtDS0=    0 NMtDT0=    0
 Symmetry not used in FoFCou.
 E= -890.932749658066    
 DIIS: error= 1.87D-02 at cycle   1 NSaved=   1.
 NSaved= 1 IEnMin= 1 EnMin= -890.932749658066     IErMin= 1 ErrMin= 1.87D-02
 ErrMax= 1.87D-02  0.00D+00 EMaxC= 1.00D-01 BMatC= 4.13D-01 BMatP= 4.13D-01
 IDIUse=3 WtCom= 8.13D-01 WtEn= 1.87D-01
 Coeff-Com:  0.100D+01
 Coeff-En:   0.100D+01
 Coeff:      0.100D+01
 Gap=     0.209 Goal=   None    Shift=    0.000
 GapD=    0.209 DampG=1.000 DampE=0.500 DampFc=0.5000 IDamp=-1.
 Damping current iteration by 5.00D-01
 RMSDP=4.08D-03 MaxDP=1.35D-01              OVMax= 1.84D-01

 Cycle   2  Pass 0  IDiag  1:
 RMSU=  1.94D-03    CP:  9.61D-01
 E= -891.170933019220     Delta-E=       -0.238183361154 Rises=F Damp=T
 DIIS: error= 4.44D-03 at cycle   2 NSaved=   2.
 NSaved= 2 IEnMin= 2 EnMin= -891.170933019220     IErMin= 2 ErrMin= 4.44D-03
 ErrMax= 4.44D-03  0.00D+00 EMaxC= 1.00D-01 BMatC= 1.91D-02 BMatP= 4.13D-01
 IDIUse=3 WtCom= 9.56D-01 WtEn= 4.44D-02
 Coeff-Com: -0.208D-01 0.102D+01
 Coeff-En:   0.000D+00 0.100D+01
 Coeff:     -0.199D-01 0.102D+01
 Gap=     0.182 Goal=   None    Shift=    0.000
 RMSDP=1.42D-03 MaxDP=3.94D-02 DE=-2.38D-01 OVMax= 1.48D-01

 Cycle   3  Pass 0  IDiag  1:
 RMSU=  1.35D-03    CP:  9.38D-01  1.10D+00
 E= -891.401384765273     Delta-E=       -0.230451746053 Rises=F Damp=F
 DIIS: error= 8.22D-03 at cycle   3 NSaved=   3.
 NSaved= 3 IEnMin= 3 EnMin= -891.401384765273     IErMin= 2 ErrMin= 4.44D-03
 ErrMax= 8.22D-03  0.00D+00 EMaxC= 1.00D-01 BMatC= 1.23D-02 BMatP= 1.91D-02
 IDIUse=3 WtCom= 9.18D-01 WtEn= 8.22D-02
 Coeff-Com: -0.411D-01 0.457D+00 0.584D+00
 Coeff-En:   0.000D+00 0.000D+00 0.100D+01
 Coeff:     -0.378D-01 0.419D+00 0.619D+00
 Gap=     0.180 Goal=   None    Shift=    0.000
 RMSDP=5.87D-04 MaxDP=1.90D-02 DE=-2.30D-01 OVMax= 6.53D-02

 Cycle   4  Pass 0  IDiag  1:
 RMSU=  4.77D-04    CP:  9.39D-01  1.16D+00  7.61D-01
 E= -891.407718858909     Delta-E=       -0.006334093636 Rises=F Damp=F
 DIIS: error= 5.78D-03 at cycle   4 NSaved=   4.
 NSaved= 4 IEnMin= 4 EnMin= -891.407718858909     IErMin= 2 ErrMin= 4.44D-03
 ErrMax= 5.78D-03  0.00D+00 EMaxC= 1.00D-01 BMatC= 6.84D-03 BMatP= 1.23D-02
 IDIUse=3 WtCom= 9.42D-01 WtEn= 5.78D-02
 Coeff-Com: -0.194D-01 0.107D+00 0.428D+00 0.485D+00
 Coeff-En:   0.000D+00 0.000D+00 0.386D+00 0.614D+00
 Coeff:     -0.183D-01 0.100D+00 0.426D+00 0.492D+00
 Gap=     0.176 Goal=   None    Shift=    0.000
 RMSDP=2.81D-04 MaxDP=9.80D-03 DE=-6.33D-03 OVMax= 3.17D-02

 Cycle   5  Pass 0  IDiag  1:
 RMSU=  1.20D-04    CP:  9.38D-01  1.14D+00  8.41D-01  5.25D-01
 E= -891.415549861811     Delta-E=       -0.007831002902 Rises=F Damp=F
 DIIS: error= 5.68D-04 at cycle   5 NSaved=   5.
 NSaved= 5 IEnMin= 5 EnMin= -891.415549861811     IErMin= 5 ErrMin= 5.68D-04
 ErrMax= 5.68D-04  0.00D+00 EMaxC= 1.00D-01 BMatC= 2.17D-04 BMatP= 6.84D-03
 IDIUse=3 WtCom= 9.94D-01 WtEn= 5.68D-03
 Coeff-Com: -0.668D-02 0.250D-01 0.184D+00 0.255D+00 0.543D+00
 Coeff-En:   0.000D+00 0.000D+00 0.000D+00 0.000D+00 0.100D+01
 Coeff:     -0.664D-02 0.249D-01 0.183D+00 0.253D+00 0.546D+00
 Gap=     0.176 Goal=   None    Shift=    0.000
 RMSDP=6.03D-05 MaxDP=2.85D-03 DE=-7.83D-03 OVMax= 6.91D-03

 Cycle   6  Pass 0  IDiag  1:
 RMSU=  4.41D-05    CP:  9.38D-01  1.15D+00  8.39D-01  5.65D-01  7.01D-01
 E= -891.415748958984     Delta-E=       -0.000199097172 Rises=F Damp=F
 DIIS: error= 2.76D-04 at cycle   6 NSaved=   6.
 NSaved= 6 IEnMin= 6 EnMin= -891.415748958984     IErMin= 6 ErrMin= 2.76D-04
 ErrMax= 2.76D-04  0.00D+00 EMaxC= 1.00D-01 BMatC= 3.72D-05 BMatP= 2.17D-04
 IDIUse=3 WtCom= 9.97D-01 WtEn= 2.76D-03
 Coeff-Com: -0.164D-02 0.220D-02 0.565D-01 0.900D-01 0.332D+00 0.521D+00
 Coeff-En:   0.000D+00 0.000D+00 0.000D+00 0.000D+00 0.144D+00 0.856D+00
 Coeff:     -0.163D-02 0.220D-02 0.563D-01 0.898D-01 0.331D+00 0.522D+00
 Gap=     0.176 Goal=   None    Shift=    0.000
 RMSDP=2.23D-05 MaxDP=8.05D-04 DE=-1.99D-04 OVMax= 2.42D-03

 Cycle   7  Pass 0  IDiag  1:
 RMSU=  9.85D-06    CP:  9.38D-01  1.14D+00  8.44D-01  5.61D-01  7.31D-01
                    CP:  5.81D-01
 E= -891.415790982530     Delta-E=       -0.000042023546 Rises=F Damp=F
 DIIS: error= 4.57D-05 at cycle   7 NSaved=   7.
 NSaved= 7 IEnMin= 7 EnMin= -891.415790982530     IErMin= 7 ErrMin= 4.57D-05
 ErrMax= 4.57D-05  0.00D+00 EMaxC= 1.00D-01 BMatC= 1.91D-06 BMatP= 3.72D-05
 IDIUse=1 WtCom= 1.00D+00 WtEn= 0.00D+00
 Coeff-Com: -0.579D-03-0.732D-04 0.230D-01 0.381D-01 0.160D+00 0.292D+00
 Coeff-Com:  0.488D+00
 Coeff:     -0.579D-03-0.732D-04 0.230D-01 0.381D-01 0.160D+00 0.292D+00
 Coeff:      0.488D+00
 Gap=     0.176 Goal=   None    Shift=    0.000
 RMSDP=5.34D-06 MaxDP=2.00D-04 DE=-4.20D-05 OVMax= 4.74D-04

 Initial convergence to 1.0D-05 achieved.  Increase integral accuracy.
 Cycle   8  Pass 1  IDiag  1:
 E= -891.415788967131     Delta-E=        0.000002015398 Rises=F Damp=F
 DIIS: error= 2.23D-04 at cycle   1 NSaved=   1.
 NSaved= 1 IEnMin= 1 EnMin= -891.415788967131     IErMin= 1 ErrMin= 2.23D-04
 ErrMax= 2.23D-04  0.00D+00 EMaxC= 1.00D-01 BMatC= 5.11D-06 BMatP= 5.11D-06
 IDIUse=3 WtCom= 9.98D-01 WtEn= 2.23D-03
 Coeff-Com:  0.100D+01
 Coeff-En:   0.100D+01
 Coeff:      0.100D+01
 Gap=     0.176 Goal=   None    Shift=    0.000
 RMSDP=5.34D-06 MaxDP=2.00D-04 DE= 2.02D-06 OVMax= 4.86D-04

 Cycle   9  Pass 1  IDiag  1:
 RMSU=  1.31D-04    CP:  1.00D+00
 E= -891.415792727159     Delta-E=       -0.000003760028 Rises=F Damp=F
 DIIS: error= 4.07D-05 at cycle   2 NSaved=   2.
 NSaved= 2 IEnMin= 2 EnMin= -891.415792727159     IErMin= 2 ErrMin= 4.07D-05
 ErrMax= 4.07D-05  0.00D+00 EMaxC= 1.00D-01 BMatC= 1.26D-06 BMatP= 5.11D-06
 IDIUse=1 WtCom= 1.00D+00 WtEn= 0.00D+00
 Coeff-Com:  0.239D+00 0.761D+00
 Coeff:      0.239D+00 0.761D+00
 Gap=     0.176 Goal=   None    Shift=    0.000
 RMSDP=8.74D-06 MaxDP=3.11D-04 DE=-3.76D-06 OVMax= 7.91D-04

 Cycle  10  Pass 1  IDiag  1:
 RMSU=  8.68D-06    CP:  1.00D+00  1.01D+00
 E= -891.415790925316     Delta-E=        0.000001801843 Rises=F Damp=F
 DIIS: error= 6.19D-05 at cycle   3 NSaved=   3.
 NSaved= 3 IEnMin= 2 EnMin= -891.415792727159     IErMin= 2 ErrMin= 4.07D-05
 ErrMax= 6.19D-05  0.00D+00 EMaxC= 1.00D-01 BMatC= 2.84D-06 BMatP= 1.26D-06
 IDIUse=1 WtCom= 1.00D+00 WtEn= 0.00D+00
 Coeff-Com: -0.491D-02 0.603D+00 0.402D+00
 Coeff:     -0.491D-02 0.603D+00 0.402D+00
 Gap=     0.176 Goal=   None    Shift=    0.000
 RMSDP=5.41D-06 MaxDP=1.87D-04 DE= 1.80D-06 OVMax= 4.96D-04

 Cycle  11  Pass 1  IDiag  1:
 RMSU=  7.24D-07    CP:  1.00D+00  1.02D+00  3.92D-01
 E= -891.415794145947     Delta-E=       -0.000003220631 Rises=F Damp=F
 DIIS: error= 3.83D-06 at cycle   4 NSaved=   4.
 NSaved= 4 IEnMin= 4 EnMin= -891.415794145947     IErMin= 4 ErrMin= 3.83D-06
 ErrMax= 3.83D-06  0.00D+00 EMaxC= 1.00D-01 BMatC= 1.46D-08 BMatP= 1.26D-06
 IDIUse=1 WtCom= 1.00D+00 WtEn= 0.00D+00
 Coeff-Com: -0.495D-02 0.356D+00 0.241D+00 0.408D+00
 Coeff:     -0.495D-02 0.356D+00 0.241D+00 0.408D+00
 Gap=     0.176 Goal=   None    Shift=    0.000
 RMSDP=3.28D-07 MaxDP=1.93D-05 DE=-3.22D-06 OVMax= 2.65D-05

 Cycle  12  Pass 1  IDiag  1:
 RMSU=  2.26D-07    CP:  1.00D+00  1.02D+00  4.01D-01  6.92D-01
 E= -891.415794160256     Delta-E=       -0.000000014310 Rises=F Damp=F
 DIIS: error= 3.96D-07 at cycle   5 NSaved=   5.
 NSaved= 5 IEnMin= 5 EnMin= -891.415794160256     IErMin= 5 ErrMin= 3.96D-07
 ErrMax= 3.96D-07  0.00D+00 EMaxC= 1.00D-01 BMatC= 1.24D-10 BMatP= 1.46D-08
 IDIUse=1 WtCom= 1.00D+00 WtEn= 0.00D+00
 Coeff-Com: -0.191D-02 0.131D+00 0.888D-01 0.168D+00 0.614D+00
 Coeff:     -0.191D-02 0.131D+00 0.888D-01 0.168D+00 0.614D+00
 Gap=     0.176 Goal=   None    Shift=    0.000
 RMSDP=5.80D-08 MaxDP=1.79D-06 DE=-1.43D-08 OVMax= 6.30D-06

 Cycle  13  Pass 1  IDiag  1:
 RMSU=  5.46D-08    CP:  1.00D+00  1.02D+00  4.01D-01  7.12D-01  9.54D-01
 E= -891.415794160337     Delta-E=       -0.000000000081 Rises=F Damp=F
 DIIS: error= 2.04D-07 at cycle   6 NSaved=   6.
 NSaved= 6 IEnMin= 6 EnMin= -891.415794160337     IErMin= 6 ErrMin= 2.04D-07
 ErrMax= 2.04D-07  0.00D+00 EMaxC= 1.00D-01 BMatC= 4.72D-11 BMatP= 1.24D-10
 IDIUse=1 WtCom= 1.00D+00 WtEn= 0.00D+00
 Coeff-Com: -0.447D-03 0.281D-01 0.190D-01 0.416D-01 0.388D+00 0.523D+00
 Coeff:     -0.447D-03 0.281D-01 0.190D-01 0.416D-01 0.388D+00 0.523D+00
 Gap=     0.176 Goal=   None    Shift=    0.000
 RMSDP=2.53D-08 MaxDP=1.02D-06 DE=-8.09D-11 OVMax= 2.58D-06

 Cycle  14  Pass 1  IDiag  1:
 RMSU=  1.71D-08    CP:  1.00D+00  1.02D+00  4.01D-01  7.13D-01  9.93D-01
                    CP:  7.05D-01
 E= -891.415794160375     Delta-E=       -0.000000000037 Rises=F Damp=F
 DIIS: error= 1.09D-07 at cycle   7 NSaved=   7.
 NSaved= 7 IEnMin= 7 EnMin= -891.415794160375     IErMin= 7 ErrMin= 1.09D-07
 ErrMax= 1.09D-07  0.00D+00 EMaxC= 1.00D-01 BMatC= 3.87D-12 BMatP= 4.72D-11
 IDIUse=1 WtCom= 1.00D+00 WtEn= 0.00D+00
 Coeff-Com:  0.553D-04-0.519D-02-0.357D-02-0.453D-02 0.118D+00 0.279D+00
 Coeff-Com:  0.617D+00
 Coeff:      0.553D-04-0.519D-02-0.357D-02-0.453D-02 0.118D+00 0.279D+00
 Coeff:      0.617D+00
 Gap=     0.176 Goal=   None    Shift=    0.000
 RMSDP=8.91D-09 MaxDP=3.13D-07 DE=-3.73D-11 OVMax= 9.03D-07

 SCF Done:  E(RPBE1PBE) =  -891.415794160     A.U. after   14 cycles
            NFock= 14  Conv=0.89D-08     -V/T= 2.0112
 KE= 8.815468244495D+02 PE=-5.709472390133D+03 EE= 2.113580046723D+03
 Leave Link  502 at Thu Jan 23 18:22:38 2025, MaxMem=  3221225472 cpu:             984.9 elap:              41.2
 (Enter /software/gaussian/G16-C.01/avx2/g16/l601.exe)
 Copying SCF densities to generalized density rwf, IOpCl= 0 IROHF=0.

 **********************************************************************

            Population analysis using the SCF Density.

 **********************************************************************

 Orbital symmetries:
       Occupied  (A) (A) (A) (A) (A) (A) (A) (A) (A) (A) (A) (A)
                 (A) (A) (A) (A) (A) (A) (A) (A) (A) (A) (A) (A)
                 (A) (A) (A) (A) (A) (A) (A) (A) (A) (A) (A) (A)
                 (A) (A) (A) (A) (A) (A) (A) (A) (A) (A) (A) (A)
                 (A) (A) (A) (A) (A) (A) (A) (A) (A) (A) (A) (A)
                 (A) (A) (A) (A) (A) (A) (A) (A) (A) (A) (A) (A)
                 (A) (A) (A) (A) (A) (A) (A) (A)
       Virtual   (A) (A) (A) (A) (A) (A) (A) (A) (A) (A) (A) (A)
                 (A) (A) (A) (A) (A) (A) (A) (A) (A) (A) (A) (A)
                 (A) (A) (A) (A) (A) (A) (A) (A) (A) (A) (A) (A)
                 (A) (A) (A) (A) (A) (A) (A) (A) (A) (A) (A) (A)
                 (A) (A) (A) (A) (A) (A) (A) (A) (A) (A) (A) (A)
                 (A) (A) (A) (A) (A) (A) (A) (A) (A) (A) (A) (A)
                 (A) (A) (A) (A) (A) (A) (A) (A) (A) (A) (A) (A)
                 (A) (A) (A) (A) (A) (A) (A) (A) (A) (A) (A) (A)
                 (A) (A) (A) (A) (A) (A) (A) (A) (A) (A) (A) (A)
                 (A) (A) (A) (A) (A) (A) (A) (A) (A) (A) (A) (A)
                 (A) (A) (A) (A) (A) (A) (A) (A) (A) (A) (A) (A)
                 (A) (A) (A) (A) (A) (A) (A) (A) (A) (A) (A) (A)
                 (A) (A) (A) (A) (A) (A) (A) (A) (A) (A) (A) (A)
                 (A) (A) (A) (A) (A) (A) (A) (A) (A) (A) (A) (A)
                 (A) (A) (A) (A) (A) (A) (A) (A) (A) (A) (A) (A)
                 (A) (A) (A) (A) (A) (A) (A) (A) (A) (A) (A) (A)
                 (A) (A) (A) (A) (A) (A) (A) (A) (A) (A) (A) (A)
                 (A) (A) (A) (A) (A) (A) (A) (A) (A) (A) (A) (A)
                 (A) (A) (A) (A) (A) (A) (A) (A) (A) (A) (A) (A)
                 (A) (A) (A) (A) (A) (A) (A) (A) (A) (A) (A) (A)
                 (A) (A) (A) (A) (A) (A) (A) (A) (A) (A) (A) (A)
                 (A) (A) (A) (A) (A) (A) (A) (A) (A) (A) (A) (A)
                 (A) (A) (A) (A) (A) (A) (A) (A) (A) (A) (A) (A)
                 (A) (A) (A) (A) (A) (A) (A) (A) (A) (A) (A) (A)
                 (A) (A) (A) (A) (A) (A) (A) (A) (A) (A) (A) (A)
                 (A) (A) (A) (A) (A) (A) (A) (A) (A) (A) (A) (A)
                 (A) (A) (A) (A) (A) (A) (A) (A) (A) (A) (A) (A)
                 (A) (A) (A) (A) (A) (A) (A) (A) (A) (A) (A) (A)
                 (A) (A) (A) (A) (A) (A) (A) (A) (A) (A) (A) (A)
                 (A) (A) (A) (A)
 The electronic state is 1-A.
 Alpha  occ. eigenvalues --  -14.37594 -10.27076 -10.26951 -10.25489 -10.25328
 Alpha  occ. eigenvalues --  -10.25224 -10.24699 -10.24672 -10.24631 -10.23293
 Alpha  occ. eigenvalues --  -10.23210 -10.23160 -10.23108 -10.23056 -10.22847
 Alpha  occ. eigenvalues --  -10.22537 -10.22411 -10.22168 -10.21922 -10.21744
 Alpha  occ. eigenvalues --  -10.21352 -10.21312  -6.76412  -0.94376  -0.86858
 Alpha  occ. eigenvalues --   -0.84548  -0.82047  -0.80786  -0.79070  -0.78737
 Alpha  occ. eigenvalues --   -0.75499  -0.74381  -0.73682  -0.72122  -0.67537
 Alpha  occ. eigenvalues --   -0.65371  -0.64857  -0.64163  -0.61415  -0.59877
 Alpha  occ. eigenvalues --   -0.58138  -0.56646  -0.52967  -0.51341  -0.50744
 Alpha  occ. eigenvalues --   -0.49957  -0.49105  -0.48429  -0.47487  -0.46332
 Alpha  occ. eigenvalues --   -0.45451  -0.43965  -0.43389  -0.43029  -0.42607
 Alpha  occ. eigenvalues --   -0.42493  -0.41391  -0.41131  -0.40451  -0.39858
 Alpha  occ. eigenvalues --   -0.39538  -0.39187  -0.38649  -0.38431  -0.37601
 Alpha  occ. eigenvalues --   -0.37154  -0.36705  -0.36529  -0.35442  -0.34566
 Alpha  occ. eigenvalues --   -0.33616  -0.31375  -0.30307  -0.29913  -0.28350
 Alpha  occ. eigenvalues --   -0.25876  -0.24789  -0.24514  -0.24362  -0.23278
 Alpha virt. eigenvalues --   -0.05706  -0.05188  -0.01554  -0.00735   0.00697
 Alpha virt. eigenvalues --    0.01533   0.06391   0.07868   0.08124   0.09024
 Alpha virt. eigenvalues --    0.09303   0.09914   0.10579   0.10819   0.11733
 Alpha virt. eigenvalues --    0.11988   0.12519   0.13242   0.13873   0.13978
 Alpha virt. eigenvalues --    0.14323   0.15276   0.15576   0.15792   0.16662
 Alpha virt. eigenvalues --    0.16679   0.17509   0.17915   0.18924   0.19539
 Alpha virt. eigenvalues --    0.20175   0.21535   0.22491   0.22994   0.23776
 Alpha virt. eigenvalues --    0.24912   0.25397   0.25719   0.27462   0.28197
 Alpha virt. eigenvalues --    0.29727   0.29854   0.30716   0.31513   0.32484
 Alpha virt. eigenvalues --    0.33656   0.34225   0.34881   0.34995   0.36559
 Alpha virt. eigenvalues --    0.36880   0.37238   0.37928   0.38725   0.40367
 Alpha virt. eigenvalues --    0.40582   0.41868   0.42060   0.42734   0.43667
 Alpha virt. eigenvalues --    0.43996   0.44820   0.45522   0.46188   0.46393
 Alpha virt. eigenvalues --    0.46599   0.47506   0.47811   0.48417   0.49079
 Alpha virt. eigenvalues --    0.49401   0.50106   0.50588   0.50720   0.51307
 Alpha virt. eigenvalues --    0.51809   0.52449   0.52652   0.53383   0.54987
 Alpha virt. eigenvalues --    0.55432   0.56419   0.56900   0.57774   0.58822
 Alpha virt. eigenvalues --    0.59886   0.61132   0.62379   0.62803   0.63101
 Alpha virt. eigenvalues --    0.63648   0.64002   0.64249   0.64746   0.65491
 Alpha virt. eigenvalues --    0.65997   0.66179   0.66327   0.66813   0.66995
 Alpha virt. eigenvalues --    0.67373   0.67846   0.68613   0.68746   0.68946
 Alpha virt. eigenvalues --    0.69170   0.69803   0.70224   0.70321   0.70419
 Alpha virt. eigenvalues --    0.70542   0.71259   0.71487   0.72078   0.72469
 Alpha virt. eigenvalues --    0.72597   0.72839   0.73369   0.73726   0.73873
 Alpha virt. eigenvalues --    0.74088   0.74484   0.74820   0.75975   0.77007
 Alpha virt. eigenvalues --    0.77825   0.78294   0.79090   0.79438   0.79751
 Alpha virt. eigenvalues --    0.80611   0.81273   0.81404   0.83188   0.83892
 Alpha virt. eigenvalues --    0.84385   0.85086   0.85786   0.86614   0.87746
 Alpha virt. eigenvalues --    0.88353   0.89637   0.90040   0.91058   0.93191
 Alpha virt. eigenvalues --    0.95083   0.96272   0.98443   0.99304   1.00940
 Alpha virt. eigenvalues --    1.02024   1.02617   1.03775   1.06111   1.07312
 Alpha virt. eigenvalues --    1.10550   1.13250   1.15099   1.16337   1.17982
 Alpha virt. eigenvalues --    1.18792   1.19660   1.20781   1.21613   1.22077
 Alpha virt. eigenvalues --    1.22788   1.24209   1.24515   1.24875   1.26677
 Alpha virt. eigenvalues --    1.27167   1.27846   1.28339   1.29273   1.29498
 Alpha virt. eigenvalues --    1.30611   1.31362   1.32038   1.32951   1.35768
 Alpha virt. eigenvalues --    1.36580   1.38737   1.41395   1.42198   1.43795
 Alpha virt. eigenvalues --    1.47031   1.48663   1.49709   1.50393   1.51899
 Alpha virt. eigenvalues --    1.53012   1.54511   1.55206   1.56613   1.57156
 Alpha virt. eigenvalues --    1.57387   1.58564   1.59340   1.60859   1.61225
 Alpha virt. eigenvalues --    1.62027   1.63602   1.65304   1.66003   1.66724
 Alpha virt. eigenvalues --    1.69438   1.70995   1.72979   1.73351   1.73559
 Alpha virt. eigenvalues --    1.73935   1.74193   1.74680   1.74963   1.75458
 Alpha virt. eigenvalues --    1.75942   1.76957   1.77890   1.77997   1.78450
 Alpha virt. eigenvalues --    1.79040   1.79887   1.80446   1.80562   1.80658
 Alpha virt. eigenvalues --    1.81582   1.82151   1.83091   1.83574   1.84496
 Alpha virt. eigenvalues --    1.84923   1.85465   1.86068   1.86129   1.86975
 Alpha virt. eigenvalues --    1.87653   1.88880   1.89133   1.90712   1.91277
 Alpha virt. eigenvalues --    1.91759   1.92454   1.95064   1.95492   1.97399
 Alpha virt. eigenvalues --    1.98282   1.99622   2.00159   2.00414   2.01219
 Alpha virt. eigenvalues --    2.01696   2.02321   2.02765   2.03469   2.04069
 Alpha virt. eigenvalues --    2.04251   2.06491   2.07221   2.09100   2.09200
 Alpha virt. eigenvalues --    2.10081   2.10221   2.11458   2.12027   2.12384
 Alpha virt. eigenvalues --    2.12869   2.15198   2.15592   2.16650   2.17407
 Alpha virt. eigenvalues --    2.18684   2.19702   2.20435   2.24015   2.24820
 Alpha virt. eigenvalues --    2.25734   2.26447   2.28125   2.28771   2.31194
 Alpha virt. eigenvalues --    2.31881   2.32730   2.34443   2.35366   2.36666
 Alpha virt. eigenvalues --    2.36734   2.38411   2.38965   2.39466   2.40151
 Alpha virt. eigenvalues --    2.40679   2.41616   2.42862   2.44933   2.46400
 Alpha virt. eigenvalues --    2.46600   2.47185   2.49069   2.49597   2.50128
 Alpha virt. eigenvalues --    2.51920   2.54076   2.54749   2.56009   2.57967
 Alpha virt. eigenvalues --    2.60292   2.61197   2.61854   2.65850   2.66174
 Alpha virt. eigenvalues --    2.67227   2.67928   2.69120   2.69308   2.74755
 Alpha virt. eigenvalues --    2.76208   2.77350   2.78234   2.78914   2.79996
 Alpha virt. eigenvalues --    2.81088   2.81463   2.82707   2.83575   2.88365
 Alpha virt. eigenvalues --    2.89652   2.90921   2.91381   2.91770   2.92577
 Alpha virt. eigenvalues --    2.92716   2.94474   2.95792   2.96505   2.97406
 Alpha virt. eigenvalues --    2.97719   2.98991   3.00980   3.02310   3.03269
 Alpha virt. eigenvalues --    3.03733   3.04836   3.07994   3.10398   3.14393
 Alpha virt. eigenvalues --    3.21560   3.26585   3.35451   3.37397   3.49885
 Alpha virt. eigenvalues --    3.54618   3.59645
          Condensed to atoms (all electrons):
               1          2          3          4          5          6
     1  C    4.647833   0.401107  -0.108461   0.005922   0.000817   0.000068
     2  C    0.401107   4.974019   0.400354  -0.000550  -0.075623   0.001078
     3  C   -0.108461   0.400354   4.992309   0.425179   0.023649   0.010641
     4  C    0.005922  -0.000550   0.425179   4.902694   0.429422  -0.081607
     5  C    0.000817  -0.075623   0.023649   0.429422   5.184858   0.415227
     6  C    0.000068   0.001078   0.010641  -0.081607   0.415227   4.557974
     7  C    0.008928  -0.051645  -0.061904  -0.040461   0.408855  -0.066082
     8  C   -0.000080   0.008060  -0.000184   0.010889  -0.081359  -0.002034
     9  C   -0.000005   0.000153   0.000040  -0.000330  -0.006792  -0.001687
    10  C    0.000086   0.000018  -0.000126  -0.000175  -0.002981   0.000440
    11  C   -0.000000   0.000021  -0.000001   0.000005  -0.000214  -0.000368
    12  C    0.000000  -0.000001   0.000000  -0.000001   0.000012   0.000111
    13  C   -0.000000   0.000015   0.000001   0.000003  -0.000087   0.000069
    14  C    0.000000  -0.000000   0.000000  -0.000000  -0.000001  -0.000011
    15  C    0.000038   0.000260   0.000094  -0.000351  -0.015224  -0.000928
    16  B   -0.000060  -0.000789  -0.000026   0.000366   0.005228   0.001674
    17  C   -0.000000   0.000011   0.000005  -0.000138  -0.000284  -0.002450
    18  C    0.000000   0.000002   0.000006  -0.000035  -0.000090  -0.000575
    19  C   -0.000000  -0.000014  -0.000017   0.000033   0.000080  -0.000053
    20  C    0.000002  -0.000017  -0.000013   0.000148   0.000045   0.000006
    21  C   -0.000100   0.000945   0.000114   0.000068  -0.000206  -0.000001
    22  C   -0.000077   0.000736  -0.000169  -0.000137   0.000080  -0.000055
    23  N   -0.083192   0.517385  -0.042732  -0.042907  -0.047877   0.004808
    24  H    0.381873  -0.019864  -0.002761   0.000191   0.000067  -0.000002
    25  H    0.358260  -0.009132   0.012421  -0.000392   0.000168  -0.000006
    26  H    0.380353  -0.019988  -0.004024   0.001084  -0.000063  -0.000003
[...]
    33  H   -0.000000   0.000000   0.000003  -0.000144   0.015219   0.000069
    34  H   -0.000000   0.000000   0.000000  -0.000004   0.000596   0.000000
    35  H    0.000000  -0.000000   0.000000  -0.000010   0.000041   0.000000
    36  H    0.000000  -0.000000  -0.000002   0.000027  -0.000006   0.000000
    37  H    0.000001  -0.000004  -0.000007   0.000129  -0.000001   0.000000
    38  H   -0.000000  -0.000017   0.000028  -0.000318   0.000002   0.000000
    39  H    0.000069  -0.000075   0.000224   0.000516  -0.000010  -0.000000
    40  H    0.016313  -0.002608   0.000377   0.007537  -0.000005  -0.000000
    41  H   -0.066089   0.011984  -0.001573  -0.000200  -0.000000   0.000000
    42  H    0.402157  -0.039423   0.008095  -0.000513   0.000000   0.000000
    43  H   -0.040585   0.402914  -0.044446   0.008337   0.000000  -0.000001
    44  H    0.013398  -0.074685   0.420533  -0.039548  -0.000014   0.000090
    45  H   -0.003357   0.017756  -0.065900   0.386942   0.013936   0.000406
              25         26         27         28         29         30
     1  C    0.401173   0.423397  -0.006810  -0.000531  -0.000002  -0.000003
     2  C   -0.030199  -0.070550  -0.038516   0.010044   0.000288   0.000275
     3  C   -0.003488   0.005581   0.406276  -0.056798  -0.000599  -0.000285
     4  C   -0.000216   0.003273  -0.053925   0.432306   0.002510   0.003929
     5  C    0.000133  -0.000567   0.011776  -0.063210  -0.042936  -0.057396
     6  C   -0.000010  -0.000025   0.000046  -0.013268   0.424003   0.392743
     7  C    0.000181   0.000689  -0.001991   0.018628  -0.008431   0.014104
     8  C   -0.000374  -0.000012   0.000450  -0.000950  -0.004756   0.000025
     9  C    0.000141   0.000016  -0.000057   0.000030   0.007932   0.000305
    10  C   -0.000227  -0.000034   0.000075  -0.000083   0.000227  -0.000182
    11  C    0.000013   0.000000  -0.000001   0.000004   0.000300  -0.000003
    12  C   -0.000001   0.000000   0.000000  -0.000002   0.000564  -0.000039
    13  C   -0.000001  -0.000000   0.000001   0.000005   0.000060  -0.000086
    14  C    0.000000  -0.000000  -0.000000   0.000000  -0.000025   0.000001
    15  C   -0.000033  -0.000002   0.000028   0.000076  -0.005189   0.000120
    16  B   -0.000033   0.000000  -0.000184   0.000145   0.002104   0.000443
    17  C   -0.000000  -0.000000   0.000005   0.000007   0.000191  -0.000019
    18  C    0.000000   0.000000  -0.000003   0.000057   0.000080   0.000096
    19  C   -0.000000  -0.000000   0.000005  -0.000045   0.000004   0.000009
    20  C    0.000001   0.000001  -0.000016   0.000020   0.000000  -0.000001
    21  C    0.000015   0.000012  -0.000093   0.000020  -0.000005  -0.000034
    22  C   -0.000058  -0.000099   0.000141  -0.000058   0.000024  -0.000034
    23  N    0.001051   0.005590   0.008181  -0.002204   0.000408  -0.000612
    24  H   -0.024386  -0.022338   0.000028   0.000021   0.000001   0.000001
    25  H    0.540326  -0.021442  -0.000192   0.000026  -0.000002  -0.000000
    26  H   -0.021442   0.555316  -0.000020   0.000008  -0.000000   0.000001
    27  H   -0.000192  -0.000020   0.567523  -0.008934   0.000014  -0.000145
    28  H    0.000026   0.000008  -0.008934   0.565163   0.000125   0.005611
    29  H   -0.000002  -0.000000   0.000014   0.000125   0.523666  -0.021421
    30  H   -0.000000   0.000001  -0.000145   0.005611  -0.021421   0.559050
    31  H    0.000002   0.000000   0.000010   0.000447  -0.026574  -0.022221
    32  H    0.000011   0.000002  -0.000000   0.000023  -0.000040  -0.000059
    33  H    0.000468   0.000043  -0.000040   0.000018   0.000104   0.000025
    34  H    0.000002   0.000000  -0.000001   0.000001  -0.000031   0.000001
    35  H   -0.000000  -0.000000  -0.000000   0.000000   0.000003   0.000001
    36  H    0.000000   0.000000   0.000000  -0.000000   0.000010  -0.000000
    37  H   -0.000000   0.000000   0.000000  -0.000000  -0.000001   0.000000
    38  H    0.000000  -0.000000  -0.000000  -0.000000   0.000033  -0.000000
    39  H   -0.000000  -0.000000   0.000000   0.000000  -0.000004   0.000000
    40  H   -0.000000  -0.000000   0.000000  -0.000003  -0.000060   0.000110
    41  H    0.000000   0.000000  -0.000000   0.000000   0.000005  -0.000007
    42  H   -0.000000  -0.000000   0.000000  -0.000000   0.000000  -0.000000
    43  H    0.000000   0.000000  -0.000000  -0.000000  -0.000000   0.000000
    44  H   -0.000001  -0.000014   0.000016  -0.000007  -0.000000  -0.000000
    45  H    0.000127   0.000109  -0.000152   0.000073  -0.000015   0.000013
              31         32         33         34         35         36
     1  C   -0.000003   0.000010  -0.000385   0.000004   0.000001  -0.000000
     2  C    0.000337  -0.000069  -0.001304   0.000015  -0.000000   0.000000
     3  C   -0.000332   0.000037   0.000381  -0.000039  -0.000001   0.000000
     4  C   -0.003328   0.000848   0.000875   0.000026  -0.000000   0.000000
     5  C   -0.021910   0.008189  -0.003544   0.000343   0.000012  -0.000000
     6  C    0.391689   0.000113  -0.000429  -0.000108  -0.000014  -0.000008
     7  C   -0.006657   0.001938  -0.012009  -0.001842  -0.000018   0.000204
     8  C   -0.009638  -0.023013   0.000857   0.011558   0.030556  -0.006676
     9  C   -0.000963  -0.023357  -0.032532  -0.063036  -0.081419   0.018812
    10  C   -0.000015   0.400633   0.410994   0.407214  -0.017349  -0.000380
    11  C    0.000153  -0.004798  -0.005703   0.002054   0.450410  -0.068689
    12  C    0.000247   0.000460  -0.000293   0.000889  -0.074460   0.445013
    13  C    0.000376  -0.000665  -0.000051   0.000405   0.020399  -0.080139
    14  C   -0.000087  -0.000016   0.000005   0.000001  -0.000424  -0.014152
    15  C    0.000097   0.004336  -0.001426  -0.000671  -0.009478   0.024893
    16  B   -0.004465  -0.000127   0.000528   0.000055   0.000110  -0.000681
    17  C    0.007580   0.000014  -0.000008  -0.000000  -0.000005  -0.000013
    18  C    0.000996   0.000001  -0.000000   0.000000   0.000000  -0.000005
    19  C    0.000350   0.000000  -0.000000  -0.000000   0.000000   0.000000
    20  C   -0.000285  -0.000000   0.000000   0.000000  -0.000000  -0.000000
    21  C    0.000081   0.000000   0.000003   0.000000   0.000000  -0.000002
    22  C    0.000918   0.000015  -0.000144  -0.000004  -0.000010   0.000027
    23  N   -0.000223  -0.004213   0.015219   0.000596   0.000041  -0.000006
    24  H   -0.000003  -0.000001   0.000069   0.000000   0.000000   0.000000
    25  H    0.000002   0.000011   0.000468   0.000002  -0.000000   0.000000
    26  H    0.000000   0.000002   0.000043   0.000000  -0.000000   0.000000
    27  H    0.000010  -0.000000  -0.000040  -0.000001  -0.000000   0.000000
    28  H    0.000447   0.000023   0.000018   0.000001   0.000000  -0.000000
    29  H   -0.026574  -0.000040   0.000104  -0.000031   0.000003   0.000010
    30  H   -0.022221  -0.000059   0.000025   0.000001   0.000001  -0.000000
    31  H    0.553979   0.000056  -0.000002   0.000000  -0.000003   0.000003
    32  H    0.000056   0.567633  -0.031178  -0.023463   0.000109   0.000027
    33  H   -0.000002  -0.031178   0.529656  -0.019077   0.000177   0.000017
    34  H    0.000000  -0.023463  -0.019077   0.555302   0.006388  -0.000105
    35  H   -0.000003   0.000109   0.000177   0.006388   0.589103  -0.010461
    36  H    0.000003   0.000027   0.000017  -0.000105  -0.010461   0.591554
    37  H   -0.000004   0.000000  -0.000001   0.000000  -0.000080   0.005814
    38  H    0.000027  -0.000002   0.000001  -0.000000   0.000016   0.000282
    39  H   -0.000012   0.000001  -0.000002   0.000000   0.000021   0.000039
    40  H    0.000794   0.000001  -0.000001  -0.000000  -0.000002   0.000040
    41  H   -0.000024  -0.000000   0.000000  -0.000000  -0.000000   0.000000
    42  H   -0.000009   0.000000  -0.000000   0.000000   0.000000  -0.000000
    43  H   -0.000000   0.000000   0.000000  -0.000000  -0.000000  -0.000000
    44  H    0.000009   0.000000  -0.000000  -0.000000  -0.000000   0.000000
    45  H    0.000137   0.000002   0.000146   0.000004   0.000001  -0.000000
              37         38         39         40         41         42
     1  C   -0.000000  -0.000000  -0.000000  -0.000000  -0.000000   0.000000
     2  C   -0.000000  -0.000001   0.000000  -0.000004  -0.000000   0.000000
     3  C    0.000000   0.000000   0.000000   0.000011   0.000000  -0.000002
     4  C   -0.000000   0.000002  -0.000003  -0.000109   0.000008  -0.000001
     5  C   -0.000005   0.000055  -0.000026  -0.000451   0.000035  -0.000003
     6  C    0.000006  -0.000114   0.000026  -0.000645  -0.000006   0.000005
     7  C    0.000055  -0.000220   0.000158   0.000163  -0.000019   0.000000
     8  C   -0.000677   0.000465   0.000253  -0.002513   0.000053   0.000001
     9  C    0.000239   0.000370  -0.000379   0.000156  -0.000001   0.000000
    10  C   -0.000001  -0.000001  -0.000007   0.000012   0.000000  -0.000000
    11  C    0.001030  -0.000468   0.000230  -0.000310   0.000000   0.000000
    12  C    0.001079  -0.001488  -0.002783   0.000881  -0.000005  -0.000000
    13  C   -0.050592  -0.034794  -0.034889   0.005435  -0.000078  -0.000001
    14  C    0.395393   0.398804   0.424896  -0.002209   0.000140  -0.000001
    15  C    0.010204  -0.006413  -0.013295  -0.001710  -0.000487   0.000010
    16  B   -0.001096   0.001394  -0.000179  -0.074893   0.011060  -0.001053
    17  C    0.000818   0.000403  -0.003125   0.402554  -0.037725   0.009101
    18  C    0.000027  -0.000605   0.000970  -0.049165   0.410483  -0.044692
    19  C    0.000001  -0.000000   0.000069   0.016313  -0.066089   0.402157
    20  C   -0.000004  -0.000017  -0.000075  -0.002608   0.011984  -0.039423
    21  C   -0.000007   0.000028   0.000224   0.000377  -0.001573   0.008095
    22  C    0.000129  -0.000318   0.000516   0.007537  -0.000200  -0.000513
    23  N   -0.000001   0.000002  -0.000010  -0.000005  -0.000000   0.000000
    24  H    0.000000   0.000000  -0.000000  -0.000000   0.000000   0.000000
    25  H   -0.000000   0.000000  -0.000000  -0.000000   0.000000  -0.000000
    26  H    0.000000  -0.000000  -0.000000  -0.000000   0.000000  -0.000000
    27  H    0.000000  -0.000000   0.000000   0.000000  -0.000000   0.000000
    28  H   -0.000000  -0.000000   0.000000  -0.000003   0.000000  -0.000000
    29  H   -0.000001   0.000033  -0.000004  -0.000060   0.000005   0.000000
    30  H    0.000000  -0.000000   0.000000   0.000110  -0.000007  -0.000000
    31  H   -0.000004   0.000027  -0.000012   0.000794  -0.000024  -0.000009
    32  H    0.000000  -0.000002   0.000001   0.000001  -0.000000   0.000000
    33  H   -0.000001   0.000001  -0.000002  -0.000001   0.000000  -0.000000
    34  H    0.000000  -0.000000   0.000000  -0.000000  -0.000000   0.000000
    35  H   -0.000080   0.000016   0.000021  -0.000002  -0.000000   0.000000
    36  H    0.005814   0.000282   0.000039   0.000040   0.000000  -0.000000
    37  H    0.549681  -0.023582  -0.018326   0.000329  -0.000002  -0.000000
    38  H   -0.023582   0.577452  -0.035024  -0.000677   0.000031   0.000000
    39  H   -0.018326  -0.035024   0.541366  -0.000361  -0.000057   0.000002
    40  H    0.000329  -0.000677  -0.000361   0.593344  -0.017161  -0.000423
    41  H   -0.000002   0.000031  -0.000057  -0.017161   0.581765  -0.008572
    42  H   -0.000000   0.000000   0.000002  -0.000423  -0.008572   0.562115
    43  H    0.000000   0.000000  -0.000000   0.000032  -0.000428  -0.011140
    44  H    0.000000  -0.000000   0.000005   0.000044   0.000013  -0.000409
    45  H   -0.000004  -0.000017  -0.000176  -0.000429   0.000042   0.000022
              43         44         45
     1  C   -0.000000   0.000078  -0.000405
     2  C   -0.000001   0.000130  -0.000899
     3  C    0.000002   0.000069  -0.000070
     4  C    0.000004  -0.000182   0.001574
     5  C    0.000013   0.000054  -0.001472
     6  C   -0.000001  -0.000000  -0.000680
     7  C   -0.000002  -0.000029   0.000285
     8  C   -0.000003   0.000109  -0.002037
     9  C   -0.000000   0.000002   0.000402
    10  C   -0.000000   0.000001  -0.000278
    11  C    0.000000  -0.000001   0.000090
    12  C    0.000000   0.000001  -0.000363
    13  C   -0.000000  -0.000013   0.000457
    14  C    0.000000  -0.000003   0.000384
    15  C    0.000013  -0.000656  -0.002355
    16  B   -0.001501   0.009418  -0.034789
    17  C   -0.000587   0.000060   0.004580
    18  C    0.008550  -0.002071   0.001329
    19  C   -0.040585   0.013398  -0.003357
    20  C    0.402914  -0.074685   0.017756
    21  C   -0.044446   0.420533  -0.065900
    22  C    0.008337  -0.039548   0.386942
    23  N    0.000000  -0.000014   0.013936
    24  H   -0.000001   0.000090   0.000406
    25  H    0.000000  -0.000001   0.000127
    26  H    0.000000  -0.000014   0.000109
    27  H   -0.000000   0.000016  -0.000152
    28  H   -0.000000  -0.000007   0.000073
    29  H   -0.000000  -0.000000  -0.000015
    30  H    0.000000  -0.000000   0.000013
    31  H   -0.000000   0.000009   0.000137
    32  H    0.000000   0.000000   0.000002
    33  H    0.000000  -0.000000   0.000146
    34  H   -0.000000  -0.000000   0.000004
    35  H   -0.000000  -0.000000   0.000001
    36  H   -0.000000   0.000000  -0.000000
    37  H    0.000000   0.000000  -0.000004
    38  H    0.000000  -0.000000  -0.000017
    39  H   -0.000000   0.000005  -0.000176
    40  H    0.000032   0.000044  -0.000429
    41  H   -0.000428   0.000013   0.000042
    42  H   -0.011140  -0.000409   0.000022
    43  H    0.563058  -0.008968  -0.000307
    44  H   -0.008968   0.586161  -0.017123
    45  H   -0.000307  -0.017123   0.565591
 Mulliken charges:
               1
     1  C   -0.409387
     2  C    0.145650
     3  C   -0.146960
     4  C   -0.207191
     5  C    0.094839
     6  C   -0.360267
     7  C    0.060851
     8  C    0.149440
     9  C   -0.038576
    10  C   -0.403026
    11  C   -0.150541
    12  C   -0.245117
    13  C    0.072565
    14  C   -0.403336
    15  C   -0.027689
    16  B   -0.064365
    17  C   -0.156024
    18  C   -0.071322
    19  C   -0.110750
    20  C   -0.079426
    21  C   -0.114752
    22  C   -0.057471
    23  N   -0.234675
    24  H    0.132508
    25  H    0.136994
    26  H    0.121063
    27  H    0.116506
    28  H    0.113237
    29  H    0.147434
    30  H    0.125685
    31  H    0.138470
    32  H    0.126542
    33  H    0.148542
    34  H    0.123521
    35  H    0.096378
    36  H    0.094582
    37  H    0.129579
    38  H    0.124377
    39  H    0.139957
    40  H    0.125605
    41  H    0.116814
    42  H    0.124734
    43  H    0.125049
    44  H    0.113533
    45  H    0.136420
 Sum of Mulliken charges =  -0.00000
 Mulliken charges with hydrogens summed into heavy atoms:
               1
     1  C   -0.018822
     2  C    0.145650
     3  C   -0.030455
     4  C   -0.093954
     5  C    0.094839
     6  C    0.051322
     7  C    0.060851
     8  C    0.149440
     9  C   -0.038576
    10  C   -0.004421
    11  C   -0.054163
    12  C   -0.150534
    13  C    0.072565
    14  C   -0.009422
    15  C   -0.027689
    16  B   -0.064365
    17  C   -0.030418
    18  C    0.045491
    19  C    0.013983
    20  C    0.045623
    21  C   -0.001218
    22  C    0.078949
    23  N   -0.234675
 Electronic spatial extent (au):  <R**2>=           6566.3682
 Charge=             -0.0000 electrons
 Dipole moment (field-independent basis, Debye):
    X=             -1.8889    Y=             -2.0217    Z=              1.3065  Tot=              3.0598
 Quadrupole moment (field-independent basis, Debye-Ang):
   XX=           -127.0752   YY=           -125.0900   ZZ=           -134.5361
   XY=              1.9679   XZ=             -1.2200   YZ=              1.6948
 Traceless Quadrupole moment (field-independent basis, Debye-Ang):
   XX=              1.8253   YY=              3.8104   ZZ=             -5.6357
   XY=              1.9679   XZ=             -1.2200   YZ=              1.6948
 Octapole moment (field-independent basis, Debye-Ang**2):
  XXX=            -27.3509  YYY=            -23.0320  ZZZ=             10.0431  XYY=              5.3425
  XXY=            -14.5398  XXZ=             11.9940  XZZ=             -4.6674  YZZ=            -18.4360
  YYZ=            -11.1080  XYZ=             -4.8532
 Hexadecapole moment (field-independent basis, Debye-Ang**3):
 XXXX=          -3929.6620 YYYY=          -3668.0273 ZZZZ=          -1153.5758 XXXY=            133.2830
 XXXZ=           -101.1985 YYYX=            -10.5831 YYYZ=            -22.9615 ZZZX=             -4.4262
 ZZZY=              8.1549 XXYY=          -1263.9192 XXZZ=           -894.9250 YYZZ=           -832.6262
 XXYZ=             43.2165 YYXZ=              3.7126 ZZXY=            -12.8751
 N-N= 1.834850977073D+03 E-N=-5.740871116773D+03  KE= 8.873598123741D+02
 No NMR shielding tensors so no spin-rotation constants.
 Leave Link  601 at Thu Jan 23 19:04:05 2025, MaxMem=  3221225472 cpu:              13.8 elap:               0.7
 (Enter /software/gaussian/G16-C.01/avx2/g16/l9999.exe)
 Unable to Open any file for archive entry.
 1\1\GINC-NODE33\SP\RPBE1PBE\def2TZVP\C21H22B1N1\LAPLAZA\23-Jan-2025\0\
 \#p def2tzvp pbe1pbe integral=ultrafinegrid geom=allcheck guess=read e
 m=gd3bj\\neutral\\0,1\C,0,2.5900838487,2.0310639564,3.0157805504\C,0,2
 .2321985478,1.641707219,1.6124897486\C,0,2.4701613625,2.4866587394,0.5
 240474692\C,0,2.1371278703,2.0457652526,-0.7506886234\C,0,1.5516954098
 ,0.7918739645,-0.9337489149\C,0,1.2010560788,0.2857270545,-2.300044230
 5\C,0,1.3141174317,0.0324660701,0.2307006457\C,0,0.6400392057,-1.29917
 28284,0.1504932524\C,0,1.4106538189,-2.4642455762,0.3149845997\C,0,2.8
 852440112,-2.3823060723,0.5826685625\C,0,0.758080713,-3.6943061579,0.2
 318177809\C,0,-0.6126391241,-3.7639714744,0.0007675321\C,0,-1.37966348
 11,-2.609934477,-0.1694602694\C,0,-2.8618992737,-2.7338260729,-0.40251
 96718\C,0,-0.745788347,-1.349680403,-0.0976374286\B,0,-1.5516231566,0.
 0065284186,-0.2444659651\C,0,-2.3291939312,0.2848742462,-1.5367407119\
 C,0,-3.0290855367,1.4071866655,-1.9057837049\C,0,-3.2460719632,2.61384
 89688,-1.1853463844\C,0,-2.8293139415,2.976280065,0.0720808218\C,0,-2.
 0583645293,2.2531210144,1.0233621832\C,0,-1.5060160166,1.0006254986,0.
 923179874\N,0,1.6708128985,0.443797727,1.4489028551\H,0,1.6890975607,2
 .0440562159,3.6483226965\H,0,3.2733474964,1.287418256,3.4534021481\H,0
 ,3.0667119076,3.0196589796,3.060648291\H,0,2.9257825714,3.467767589,0.
 6753342135\H,0,2.3387796696,2.6788921959,-1.619824327\H,0,1.3954233863
 ,-0.7924043817,-2.3905733226\H,0,1.7743343429,0.8155398272,-3.07429765
 27\H,0,0.1304423773,0.4348794416,-2.5173830534\H,0,3.4072031761,-1.814
 8552126,-0.2046124624\H,0,3.0774403364,-1.8535123688,1.5284302818\H,0,
 3.3359671303,-3.3829716427,0.6402419168\H,0,1.3338484925,-4.6154082258
 ,0.3596387764\H,0,-1.1008553183,-4.7421500274,-0.0413441847\H,0,-3.226
 0182928,-3.7283532378,-0.1071789105\H,0,-3.1213232552,-2.594278729,-1.
 4649204944\H,0,-3.4318100928,-1.9828233734,0.1648437672\H,0,-2.3200009
 972,-0.5009663639,-2.303296143\H,0,-3.4948008649,1.4002128597,-2.89957
 11308\H,0,-3.8397104035,3.3649374828,-1.7167373319\H,0,-3.1406905369,3
 .9746123139,0.3971694132\H,0,-1.8906448484,2.7984504247,1.9606798065\H
 ,0,-0.943455843,0.6847995284,1.810015682\\Version=ES64L-G16RevC.01\Sta
 te=1-A\HF=-892.3682806\RMSD=3.350e-09\Dipole=-0.2197738,1.0550867,-0.5
 36323\Quadrupole=-0.7835463,3.4616372,-2.6780909,-1.086535,2.4268188,1
 .1436702\PG=C01 [X(C21H22B1N1)]\\@
 The archive entry for this job was punched.


 WE DON'T KNOW ONE MILLIONTH OF ONE PERCENT ABOUT
 ANYTHING.
                                     T. A. EDISON.
 Job cpu time:       0 days  2 hours 58 minutes 34.5 seconds.
 Elapsed time:       0 days  0 hours  7 minutes 27.8 seconds.
 File lengths (MBytes):  RWF=    370 Int=      0 D2E=      0 Chk=     50 Scr=      1
 Normal termination of Gaussian 16 at Thu Jan 23 19:04:05 2025.
