 Entering Gaussian System, Link 0=g16
 Input=with_proton.com
 Output=with_proton.log
 Initial command:
 /software/gaussian/G16-C.01/avx2/g16/l1.exe "/scratch/laplaza/9953611.slurm/Gau-48433.inp" -scrdir="/scratch/laplaza/9953611.slurm/"
 Entering Link 1 = /software/gaussian/G16-C.01/avx2/g16/l1.exe PID=     48434.
  
 Copyright (c) 1988-2019, Gaussian, Inc.  All Rights Reserved.
  
 This is part of the Gaussian(R) 16 program.  It is based on
 the Gaussian(R) 09 system (copyright 2009, Gaussian, Inc.),
 the Gaussian(R) 03 system (copyright 2003, Gaussian, Inc.),
 the Gaussian(R) 98 system (copyright 1998, Gaussian, Inc.),
 the Gaussian(R) 94 system (copyright 1995, Gaussian, Inc.),
 the Gaussian 92(TM) system (copyright 1992, Gaussian, Inc.),
 the Gaussian 90(TM) system (copyright 1990, Gaussian, Inc.),
 the Gaussian 88(TM) system (copyright 1988, Gaussian, Inc.),
 the Gaussian 86(TM) system (copyright 1986, Carnegie Mellon
 University), and the Gaussian 82(TM) system (copyright 1983,
 Carnegie Mellon University). Gaussian is a federally registered
 trademark of Gaussian, Inc.
  
 This software contains proprietary and confidential information,
 including trade secrets, belonging to Gaussian, Inc.
  
 This software is provided under written license and may be
 used, copied, transmitted, or stored only in accord with that
 written license.
  
 The following legend is applicable only to US Government
 contracts under FAR:
  
                    RESTRICTED RIGHTS LEGEND
  
 Use, reproduction and disclosure by the US Government is
 subject to restrictions as set forth in subparagraphs (a)
 and (c) of the Commercial Computer Software - Restricted
 Rights clause in FAR 52.227-19.
  
 Gaussian, Inc.
 340 Quinnipiac St., Bldg. 40, Wallingford CT 06492
  
  
 ---------------------------------------------------------------
 Warning -- This program may not be used in any manner that
 competes with the business of Gaussian, Inc. or will provide
 assistance to any competitor of Gaussian, Inc.  The licensee
 of this program is prohibited from giving any competitor of
 Gaussian, Inc. access to this program.  By using this program,
 the user acknowledges that Gaussian, Inc. is engaged in the
 business of creating and licensing software in the field of
 computational chemistry and represents and warrants to the
 licensee that it is not a competitor of Gaussian, Inc. and that
 it will not use this program in any manner prohibited above.
 ---------------------------------------------------------------
  

 Cite this work as:
 Gaussian 16, Revision C.01,
 M. J. Frisch, G. W. Trucks, H. B. Schlegel, G. E. Scuseria, 
 M. A. Robb, J. R. Cheeseman, G. Scalmani, V. Barone, 
 G. A. Petersson, H. Nakatsuji, X. Li, M. Caricato, A. V. Marenich, 
 J. Bloino, B. G. Janesko, R. Gomperts, B. Mennucci, H. P. Hratchian, 
 J. V. Ortiz, A. F. Izmaylov, J. L. Sonnenberg, D. Williams-Young, 
 F. Ding, F. Lipparini, F. Egidi, J. Goings, B. Peng, A. Petrone, 
 T. Henderson, D. Ranasinghe, V. G. Zakrzewski, J. Gao, N. Rega, 
 G. Zheng, W. Liang, M. Hada, M. Ehara, K. Toyota, R. Fukuda, 
 J. Hasegawa, M. Ishida, T. Nakajima, Y. Honda, O. Kitao, H. Nakai, 
 T. Vreven, K. Throssell, J. A. Montgomery, Jr., J. E. Peralta, 
 F. Ogliaro, M. J. Bearpark, J. J. Heyd, E. N. Brothers, K. N. Kudin, 
 V. N. Staroverov, T. A. Keith, R. Kobayashi, J. Normand, 
 K. Raghavachari, A. P. Rendell, J. C. Burant, S. S. Iyengar, 
 J. Tomasi, M. Cossi, J. M. Millam, M. Klene, C. Adamo, R. Cammi, 
 J. W. Ochterski, R. L. Martin, K. Morokuma, O. Farkas, 
 J. B. Foresman, and D. J. Fox, Gaussian, Inc., Wallingford CT, 2019.
 
 ******************************************
 Gaussian 16:  ES64L-G16RevC.01  3-Jul-2019
                24-Jan-2025 
 ******************************************
 %nprocshared=24
 Will use up to   24 processors via shared memory.
 %mem=24GB
 %chk=with_proton.chk
 -------------------------------------------------------------------
 #p opt freq=noraman def2svp pbe1pbe em=gd3bj integral=ultrafinegrid
 -------------------------------------------------------------------
 1/18=20,19=15,26=4,38=1/1,3;
 2/9=110,12=2,17=6,18=5,40=1/2;
 3/5=43,7=101,11=2,25=1,30=1,71=1,74=-13,75=-5,124=41/1,2,3;
 4//1;
 5/5=2,38=5/2;
 6/7=2,8=2,9=2,10=2,28=1/1;
 7//1,2,3,16;
 1/18=20,19=15,26=4/3(2);
 2/9=110/2;
 99//99;
 2/9=110/2;
 3/5=43,7=101,11=2,25=1,30=1,71=1,74=-13,75=-5,124=41/1,2,3;
 4/5=5,16=3,69=1/1;
 5/5=2,38=5/2;
 7//1,2,3,16;
 1/18=20,19=15,26=4/3(-5);
 2/9=110/2;
 6/7=2,8=2,9=2,10=2,19=2,28=1/1;
 99/9=1/99;
 Leave Link    1 at Fri Jan 24 16:52:54 2025, MaxMem=  3221225472 cpu:               1.1 elap:               0.1
 (Enter /software/gaussian/G16-C.01/avx2/g16/l101.exe)
 -----------
 with_proton
 -----------
 Symbolic Z-matrix:
 Charge =  1 Multiplicity = 1
 C                     2.32354   2.33204   2.97452 
 C                     2.1426    1.78138   1.58861 
 C                     2.50567   2.5445    0.46505 
 C                     2.27826   2.01086  -0.81041 
 C                     1.69748   0.72825  -0.97972 
 C                     1.43499   0.19509  -2.34003 
 C                     1.30868   0.0173    0.20928 
 C                     0.63521  -1.28262   0.09558 
 C                     1.39986  -2.46647   0.17329 
 C                     2.90534  -2.42293   0.35742 
 C                     0.76385  -3.69142   0.07692 
 C                    -0.621    -3.78179  -0.0935 
 C                    -1.39602  -2.65114  -0.14208 
 C                    -2.89096  -2.7846   -0.26703 
 C                    -0.77243  -1.36263  -0.07464 
 B                    -1.63085  -0.02443  -0.13889 
 C                    -2.4227    0.25314  -1.45131 
 C                    -3.01261   1.40999  -1.79386 
 C                    -2.95687   2.7216   -1.10407 
 C                    -2.63726   2.9901    0.18139 
 C                    -2.22208   2.07335   1.24198 
 C                    -1.77122   0.8383    1.16331 
 N                     1.54466   0.57647   1.42849 
 H                     1.56007   3.1312    3.17321 
 H                     2.19401   1.54704   3.70011 
 H                     3.34651   2.76218   3.06744 
 H                     2.93461   3.49837   0.58074 
 H                     2.55684   2.61862  -1.67582 
 H                     1.73783  -0.86546  -2.39282 
 H                     2.0218    0.75996  -3.10358 
 H                     0.36169   0.29899  -2.5901 
 H                     3.35896  -1.88383  -0.50989 
 H                     3.15458  -1.88306   1.30266 
 H                     3.34339  -3.44798   0.406 
 H                     1.34082  -4.63525   0.11792 
 H                    -1.06509  -4.74976  -0.15377 
 H                    -3.21892  -3.79899   0.04941 
 H                    -3.18572  -2.66874  -1.30695 
 H                    -3.43452  -2.04656   0.3551 
 H                    -2.48296  -0.52844  -2.16267 
 H                    -3.4898    1.42562  -2.75277 
 H                    -3.31303   3.56087  -1.66894 
 H                    -2.7411    4.01756   0.4741 
 H                    -2.21104   2.49553   2.24568 
 H                    -1.42436   0.35541   2.04845 
 H                     1.23654   0.02675   2.33009 
 
 ITRead=  0  0  0  0  0  0  0  0  0  0  0  0  0  0  0  0  0  0  0  0
 ITRead=  0  0  0  0  0  0  0  0  0  0  0  0  0  0  0  0  0  0  0  0
 ITRead=  0  0  0  0  0  0
 MicOpt= -1 -1 -1 -1 -1 -1 -1 -1 -1 -1 -1 -1 -1 -1 -1 -1 -1 -1 -1 -1
 MicOpt= -1 -1 -1 -1 -1 -1 -1 -1 -1 -1 -1 -1 -1 -1 -1 -1 -1 -1 -1 -1
 MicOpt= -1 -1 -1 -1 -1 -1
 NAtoms=     46 NQM=       46 NQMF=       0 NMMI=      0 NMMIF=      0
                NMic=       0 NMicF=      0.
                    Isotopes and Nuclear Properties:
 (Nuclear quadrupole moments (NQMom) in fm**2, nuclear magnetic moments (NMagM)
  in nuclear magnetons)

  Atom         1           2           3           4           5           6           7           8           9          10
 IAtWgt=          12          12          12          12          12          12          12          12          12          12
 AtmWgt=  12.0000000  12.0000000  12.0000000  12.0000000  12.0000000  12.0000000  12.0000000  12.0000000  12.0000000  12.0000000
 NucSpn=           0           0           0           0           0           0           0           0           0           0
 AtZEff=  -0.0000000  -0.0000000  -0.0000000  -0.0000000  -0.0000000  -0.0000000  -0.0000000  -0.0000000  -0.0000000  -0.0000000
 NQMom=    0.0000000   0.0000000   0.0000000   0.0000000   0.0000000   0.0000000   0.0000000   0.0000000   0.0000000   0.0000000
 NMagM=    0.0000000   0.0000000   0.0000000   0.0000000   0.0000000   0.0000000   0.0000000   0.0000000   0.0000000   0.0000000
 AtZNuc=   6.0000000   6.0000000   6.0000000   6.0000000   6.0000000   6.0000000   6.0000000   6.0000000   6.0000000   6.0000000

  Atom        11          12          13          14          15          16          17          18          19          20
 IAtWgt=          12          12          12          12          12          11          12          12          12          12
 AtmWgt=  12.0000000  12.0000000  12.0000000  12.0000000  12.0000000  11.0093053  12.0000000  12.0000000  12.0000000  12.0000000
 NucSpn=           0           0           0           0           0           3           0           0           0           0
 AtZEff=  -0.0000000  -0.0000000  -0.0000000  -0.0000000  -0.0000000  -0.0000000  -0.0000000  -0.0000000  -0.0000000  -0.0000000
 NQMom=    0.0000000   0.0000000   0.0000000   0.0000000   0.0000000   4.0590000   0.0000000   0.0000000   0.0000000   0.0000000
 NMagM=    0.0000000   0.0000000   0.0000000   0.0000000   0.0000000   2.6886370   0.0000000   0.0000000   0.0000000   0.0000000
 AtZNuc=   6.0000000   6.0000000   6.0000000   6.0000000   6.0000000   5.0000000   6.0000000   6.0000000   6.0000000   6.0000000

  Atom        21          22          23          24          25          26          27          28          29          30
 IAtWgt=          12          12          14           1           1           1           1           1           1           1
 AtmWgt=  12.0000000  12.0000000  14.0030740   1.0078250   1.0078250   1.0078250   1.0078250   1.0078250   1.0078250   1.0078250
 NucSpn=           0           0           2           1           1           1           1           1           1           1
 AtZEff=  -0.0000000  -0.0000000  -0.0000000  -0.0000000  -0.0000000  -0.0000000  -0.0000000  -0.0000000  -0.0000000  -0.0000000
 NQMom=    0.0000000   0.0000000   2.0440000   0.0000000   0.0000000   0.0000000   0.0000000   0.0000000   0.0000000   0.0000000
 NMagM=    0.0000000   0.0000000   0.4037610   2.7928460   2.7928460   2.7928460   2.7928460   2.7928460   2.7928460   2.7928460
 AtZNuc=   6.0000000   6.0000000   7.0000000   1.0000000   1.0000000   1.0000000   1.0000000   1.0000000   1.0000000   1.0000000

  Atom        31          32          33          34          35          36          37          38          39          40
 IAtWgt=           1           1           1           1           1           1           1           1           1           1
 AtmWgt=   1.0078250   1.0078250   1.0078250   1.0078250   1.0078250   1.0078250   1.0078250   1.0078250   1.0078250   1.0078250
 NucSpn=           1           1           1           1           1           1           1           1           1           1
 AtZEff=  -0.0000000  -0.0000000  -0.0000000  -0.0000000  -0.0000000  -0.0000000  -0.0000000  -0.0000000  -0.0000000  -0.0000000
 NQMom=    0.0000000   0.0000000   0.0000000   0.0000000   0.0000000   0.0000000   0.0000000   0.0000000   0.0000000   0.0000000
 NMagM=    2.7928460   2.7928460   2.7928460   2.7928460   2.7928460   2.7928460   2.7928460   2.7928460   2.7928460   2.7928460
 AtZNuc=   1.0000000   1.0000000   1.0000000   1.0000000   1.0000000   1.0000000   1.0000000   1.0000000   1.0000000   1.0000000

  Atom        41          42          43          44          45          46
 IAtWgt=           1           1           1           1           1           1
 AtmWgt=   1.0078250   1.0078250   1.0078250   1.0078250   1.0078250   1.0078250
 NucSpn=           1           1           1           1           1           1
 AtZEff=  -0.0000000  -0.0000000  -0.0000000  -0.0000000  -0.0000000  -0.0000000
 NQMom=    0.0000000   0.0000000   0.0000000   0.0000000   0.0000000   0.0000000
 NMagM=    2.7928460   2.7928460   2.7928460   2.7928460   2.7928460   2.7928460
 AtZNuc=   1.0000000   1.0000000   1.0000000   1.0000000   1.0000000   1.0000000
 Leave Link  101 at Fri Jan 24 16:52:54 2025, MaxMem=  3221225472 cpu:              16.4 elap:               0.7
 (Enter /software/gaussian/G16-C.01/avx2/g16/l103.exe)

 GradGradGradGradGradGradGradGradGradGradGradGradGradGradGradGradGradGrad
 Berny optimization.
 Initialization pass.
                           ----------------------------
                           !    Initial Parameters    !
                           ! (Angstroms and Degrees)  !
 --------------------------                            --------------------------
 ! Name  Definition              Value          Derivative Info.                !
 --------------------------------------------------------------------------------
 ! R1    R(1,2)                  1.5022         estimate D2E/DX2                !
 ! R2    R(1,24)                 1.123          estimate D2E/DX2                !
 ! R3    R(1,25)                 1.0768         estimate D2E/DX2                !
 ! R4    R(1,26)                 1.1136         estimate D2E/DX2                !
 ! R5    R(2,3)                  1.4059         estimate D2E/DX2                !
 ! R6    R(2,23)                 1.3546         estimate D2E/DX2                !
 ! R7    R(3,4)                  1.4012         estimate D2E/DX2                !
 ! R8    R(3,27)                 1.0523         estimate D2E/DX2                !
 ! R9    R(4,5)                  1.4181         estimate D2E/DX2                !
 ! R10   R(4,28)                 1.0936         estimate D2E/DX2                !
 ! R11   R(5,6)                  1.4845         estimate D2E/DX2                !
 ! R12   R(5,7)                  1.4389         estimate D2E/DX2                !
 ! R13   R(6,29)                 1.1042         estimate D2E/DX2                !
 ! R14   R(6,30)                 1.1164         estimate D2E/DX2                !
 ! R15   R(6,31)                 1.1069         estimate D2E/DX2                !
 ! R16   R(7,8)                  1.4684         estimate D2E/DX2                !
 ! R17   R(7,23)                 1.3619         estimate D2E/DX2                !
 ! R18   R(8,9)                  1.4115         estimate D2E/DX2                !
 ! R19   R(8,15)                 1.4202         estimate D2E/DX2                !
 ! R20   R(9,10)                 1.5173         estimate D2E/DX2                !
 ! R21   R(9,11)                 1.3836         estimate D2E/DX2                !
 ! R22   R(10,32)                1.1174         estimate D2E/DX2                !
 ! R23   R(10,33)                1.1167         estimate D2E/DX2                !
 ! R24   R(10,34)                1.1158         estimate D2E/DX2                !
 ! R25   R(11,12)                1.3982         estimate D2E/DX2                !
 ! R26   R(11,35)                1.107          estimate D2E/DX2                !
 ! R27   R(12,13)                1.3716         estimate D2E/DX2                !
 ! R28   R(12,36)                1.0667         estimate D2E/DX2                !
 ! R29   R(13,14)                1.5061         estimate D2E/DX2                !
 ! R30   R(13,15)                1.4331         estimate D2E/DX2                !
 ! R31   R(14,37)                1.1121         estimate D2E/DX2                !
 ! R32   R(14,38)                1.0871         estimate D2E/DX2                !
 ! R33   R(14,39)                1.1078         estimate D2E/DX2                !
 ! R34   R(15,16)                1.5912         estimate D2E/DX2                !
 ! R35   R(16,17)                1.5577         estimate D2E/DX2                !
 ! R36   R(16,22)                1.5684         estimate D2E/DX2                !
 ! R37   R(17,18)                1.343          estimate D2E/DX2                !
 ! R38   R(17,40)                1.0586         estimate D2E/DX2                !
 ! R39   R(18,19)                1.483          estimate D2E/DX2                !
 ! R40   R(18,41)                1.0712         estimate D2E/DX2                !
 ! R41   R(19,20)                1.3515         estimate D2E/DX2                !
 ! R42   R(19,42)                1.0725         estimate D2E/DX2                !
 ! R43   R(20,21)                1.4621         estimate D2E/DX2                !
 ! R44   R(20,43)                1.0734         estimate D2E/DX2                !
 ! R45   R(21,22)                1.3171         estimate D2E/DX2                !
 ! R46   R(21,44)                1.0889         estimate D2E/DX2                !
 ! R47   R(22,45)                1.0663         estimate D2E/DX2                !
 ! R48   R(23,46)                1.1            estimate D2E/DX2                !
 ! A1    A(2,1,24)             110.0122         estimate D2E/DX2                !
 ! A2    A(2,1,25)             109.8741         estimate D2E/DX2                !
 ! A3    A(2,1,26)             109.2208         estimate D2E/DX2                !
 ! A4    A(24,1,25)            108.5297         estimate D2E/DX2                !
 ! A5    A(24,1,26)            109.5656         estimate D2E/DX2                !
 ! A6    A(25,1,26)            109.6248         estimate D2E/DX2                !
 ! A7    A(1,2,3)              120.4788         estimate D2E/DX2                !
 ! A8    A(1,2,23)             119.2265         estimate D2E/DX2                !
 ! A9    A(3,2,23)             120.1549         estimate D2E/DX2                !
 ! A10   A(2,3,4)              118.6091         estimate D2E/DX2                !
 ! A11   A(2,3,27)             120.6273         estimate D2E/DX2                !
 ! A12   A(4,3,27)             120.7629         estimate D2E/DX2                !
 ! A13   A(3,4,5)              121.306          estimate D2E/DX2                !
 ! A14   A(3,4,28)             117.8628         estimate D2E/DX2                !
 ! A15   A(5,4,28)             120.8299         estimate D2E/DX2                !
 ! A16   A(4,5,6)              120.4416         estimate D2E/DX2                !
 ! A17   A(4,5,7)              117.3161         estimate D2E/DX2                !
 ! A18   A(6,5,7)              122.1405         estimate D2E/DX2                !
 ! A19   A(5,6,29)             109.8934         estimate D2E/DX2                !
 ! A20   A(5,6,30)             110.6138         estimate D2E/DX2                !
 ! A21   A(5,6,31)             110.1674         estimate D2E/DX2                !
 ! A22   A(29,6,30)            108.0051         estimate D2E/DX2                !
 ! A23   A(29,6,31)            110.1987         estimate D2E/DX2                !
 ! A24   A(30,6,31)            107.9171         estimate D2E/DX2                !
 ! A25   A(5,7,8)              119.8247         estimate D2E/DX2                !
 ! A26   A(5,7,23)             119.3449         estimate D2E/DX2                !
 ! A27   A(8,7,23)             120.8135         estimate D2E/DX2                !
 ! A28   A(7,8,9)              119.3255         estimate D2E/DX2                !
 ! A29   A(7,8,15)             120.9136         estimate D2E/DX2                !
 ! A30   A(9,8,15)             119.7565         estimate D2E/DX2                !
 ! A31   A(8,9,10)             121.3403         estimate D2E/DX2                !
 ! A32   A(8,9,11)             119.3217         estimate D2E/DX2                !
 ! A33   A(10,9,11)            119.3379         estimate D2E/DX2                !
 ! A34   A(9,10,32)            108.8105         estimate D2E/DX2                !
 ! A35   A(9,10,33)            109.758          estimate D2E/DX2                !
 ! A36   A(9,10,34)            111.6198         estimate D2E/DX2                !
 ! A37   A(32,10,33)           109.4601         estimate D2E/DX2                !
 ! A38   A(32,10,34)           108.5201         estimate D2E/DX2                !
 ! A39   A(33,10,34)           108.6415         estimate D2E/DX2                !
 ! A40   A(9,11,12)            121.3994         estimate D2E/DX2                !
 ! A41   A(9,11,35)            120.8433         estimate D2E/DX2                !
 ! A42   A(12,11,35)           117.7515         estimate D2E/DX2                !
 ! A43   A(11,12,13)           120.7082         estimate D2E/DX2                !
 ! A44   A(11,12,36)           118.5475         estimate D2E/DX2                !
 ! A45   A(13,12,36)           120.7162         estimate D2E/DX2                !
 ! A46   A(12,13,14)           119.3895         estimate D2E/DX2                !
 ! A47   A(12,13,15)           119.579          estimate D2E/DX2                !
 ! A48   A(14,13,15)           121.0314         estimate D2E/DX2                !
 ! A49   A(13,14,37)           110.4843         estimate D2E/DX2                !
 ! A50   A(13,14,38)           109.8196         estimate D2E/DX2                !
 ! A51   A(13,14,39)           112.4212         estimate D2E/DX2                !
 ! A52   A(37,14,38)           106.8261         estimate D2E/DX2                !
 ! A53   A(37,14,39)           107.65           estimate D2E/DX2                !
 ! A54   A(38,14,39)           109.4622         estimate D2E/DX2                !
 ! A55   A(8,15,13)            119.1835         estimate D2E/DX2                !
 ! A56   A(8,15,16)            119.4853         estimate D2E/DX2                !
 ! A57   A(13,15,16)           121.3006         estimate D2E/DX2                !
 ! A58   A(15,16,17)           117.2665         estimate D2E/DX2                !
 ! A59   A(15,16,22)           118.5151         estimate D2E/DX2                !
 ! A60   A(17,16,22)           123.7814         estimate D2E/DX2                !
 ! A61   A(16,17,18)           126.2762         estimate D2E/DX2                !
 ! A62   A(16,17,40)           117.6167         estimate D2E/DX2                !
 ! A63   A(18,17,40)           116.0783         estimate D2E/DX2                !
 ! A64   A(17,18,19)           128.8071         estimate D2E/DX2                !
 ! A65   A(17,18,41)           115.8857         estimate D2E/DX2                !
 ! A66   A(19,18,41)           114.8481         estimate D2E/DX2                !
 ! A67   A(18,19,20)           128.8289         estimate D2E/DX2                !
 ! A68   A(18,19,42)           115.7623         estimate D2E/DX2                !
 ! A69   A(20,19,42)           115.0865         estimate D2E/DX2                !
 ! A70   A(19,20,21)           129.2361         estimate D2E/DX2                !
 ! A71   A(19,20,43)           115.2559         estimate D2E/DX2                !
 ! A72   A(21,20,43)           115.4583         estimate D2E/DX2                !
 ! A73   A(20,21,22)           129.9281         estimate D2E/DX2                !
 ! A74   A(20,21,44)           115.3665         estimate D2E/DX2                !
 ! A75   A(22,21,44)           114.5272         estimate D2E/DX2                !
 ! A76   A(16,22,21)           126.5868         estimate D2E/DX2                !
 ! A77   A(16,22,45)           114.2685         estimate D2E/DX2                !
 ! A78   A(21,22,45)           119.1053         estimate D2E/DX2                !
 ! A79   A(2,23,7)             123.1956         estimate D2E/DX2                !
 ! A80   A(2,23,46)            118.1171         estimate D2E/DX2                !
 ! A81   A(7,23,46)            118.6873         estimate D2E/DX2                !
 ! D1    D(24,1,2,3)            72.5455         estimate D2E/DX2                !
 ! D2    D(24,1,2,23)         -103.163          estimate D2E/DX2                !
 ! D3    D(25,1,2,3)          -168.0288         estimate D2E/DX2                !
 ! D4    D(25,1,2,23)           16.2627         estimate D2E/DX2                !
 ! D5    D(26,1,2,3)           -47.7477         estimate D2E/DX2                !
 ! D6    D(26,1,2,23)          136.5437         estimate D2E/DX2                !
 ! D7    D(1,2,3,4)           -177.873          estimate D2E/DX2                !
 ! D8    D(1,2,3,27)             1.819          estimate D2E/DX2                !
 ! D9    D(23,2,3,4)            -2.2044         estimate D2E/DX2                !
 ! D10   D(23,2,3,27)          177.4876         estimate D2E/DX2                !
 ! D11   D(1,2,23,7)           178.2522         estimate D2E/DX2                !
 ! D12   D(1,2,23,46)           -1.7478         estimate D2E/DX2                !
 ! D13   D(3,2,23,7)             2.5295         estimate D2E/DX2                !
 ! D14   D(3,2,23,46)         -177.4705         estimate D2E/DX2                !
 ! D15   D(2,3,4,5)             -0.1289         estimate D2E/DX2                !
 ! D16   D(2,3,4,28)           179.4507         estimate D2E/DX2                !
 ! D17   D(27,3,4,5)          -179.8205         estimate D2E/DX2                !
 ! D18   D(27,3,4,28)           -0.2409         estimate D2E/DX2                !
 ! D19   D(3,4,5,6)            178.5202         estimate D2E/DX2                !
 ! D20   D(3,4,5,7)              2.1106         estimate D2E/DX2                !
 ! D21   D(28,4,5,6)            -1.0469         estimate D2E/DX2                !
 ! D22   D(28,4,5,7)          -177.4565         estimate D2E/DX2                !
 ! D23   D(4,5,6,29)           136.6655         estimate D2E/DX2                !
 ! D24   D(4,5,6,30)            17.501          estimate D2E/DX2                !
 ! D25   D(4,5,6,31)          -101.7283         estimate D2E/DX2                !
 ! D26   D(7,5,6,29)           -47.1022         estimate D2E/DX2                !
 ! D27   D(7,5,6,30)          -166.2667         estimate D2E/DX2                !
 ! D28   D(7,5,6,31)            74.504          estimate D2E/DX2                !
 ! D29   D(4,5,7,8)            176.6581         estimate D2E/DX2                !
 ! D30   D(4,5,7,23)            -1.8616         estimate D2E/DX2                !
 ! D31   D(6,5,7,8)              0.3139         estimate D2E/DX2                !
 ! D32   D(6,5,7,23)          -178.2058         estimate D2E/DX2                !
 ! D33   D(5,7,8,9)             95.3062         estimate D2E/DX2                !
 ! D34   D(5,7,8,15)           -85.4624         estimate D2E/DX2                !
 ! D35   D(23,7,8,9)           -86.1963         estimate D2E/DX2                !
 ! D36   D(23,7,8,15)           93.0351         estimate D2E/DX2                !
 ! D37   D(5,7,23,2)            -0.4301         estimate D2E/DX2                !
 ! D38   D(5,7,23,46)          179.5699         estimate D2E/DX2                !
 ! D39   D(8,7,23,2)          -178.9347         estimate D2E/DX2                !
 ! D40   D(8,7,23,46)            1.0653         estimate D2E/DX2                !
 ! D41   D(7,8,9,10)            -0.6457         estimate D2E/DX2                !
 ! D42   D(7,8,9,11)           179.484          estimate D2E/DX2                !
 ! D43   D(15,8,9,10)         -179.8861         estimate D2E/DX2                !
 ! D44   D(15,8,9,11)            0.2436         estimate D2E/DX2                !
 ! D45   D(7,8,15,13)         -178.181          estimate D2E/DX2                !
 ! D46   D(7,8,15,16)           -0.1673         estimate D2E/DX2                !
 ! D47   D(9,8,15,13)            1.047          estimate D2E/DX2                !
 ! D48   D(9,8,15,16)          179.0607         estimate D2E/DX2                !
 ! D49   D(8,9,10,32)          -60.7397         estimate D2E/DX2                !
 ! D50   D(8,9,10,33)           59.0168         estimate D2E/DX2                !
 ! D51   D(8,9,10,34)          179.5277         estimate D2E/DX2                !
 ! D52   D(11,9,10,32)         119.1306         estimate D2E/DX2                !
 ! D53   D(11,9,10,33)        -121.1129         estimate D2E/DX2                !
 ! D54   D(11,9,10,34)          -0.602          estimate D2E/DX2                !
 ! D55   D(8,9,11,12)           -0.1144         estimate D2E/DX2                !
 ! D56   D(8,9,11,35)          178.9887         estimate D2E/DX2                !
 ! D57   D(10,9,11,12)        -179.9874         estimate D2E/DX2                !
 ! D58   D(10,9,11,35)          -0.8843         estimate D2E/DX2                !
 ! D59   D(9,11,12,13)          -1.3857         estimate D2E/DX2                !
 ! D60   D(9,11,12,36)        -179.4691         estimate D2E/DX2                !
 ! D61   D(35,11,12,13)        179.4845         estimate D2E/DX2                !
 ! D62   D(35,11,12,36)          1.4011         estimate D2E/DX2                !
 ! D63   D(11,12,13,14)       -177.3811         estimate D2E/DX2                !
 ! D64   D(11,12,13,15)          2.6796         estimate D2E/DX2                !
 ! D65   D(36,12,13,14)          0.6606         estimate D2E/DX2                !
 ! D66   D(36,12,13,15)       -179.2787         estimate D2E/DX2                !
 ! D67   D(12,13,14,37)         19.9779         estimate D2E/DX2                !
 ! D68   D(12,13,14,38)        -97.6096         estimate D2E/DX2                !
 ! D69   D(12,13,14,39)        140.261          estimate D2E/DX2                !
 ! D70   D(15,13,14,37)       -160.0837         estimate D2E/DX2                !
 ! D71   D(15,13,14,38)         82.3288         estimate D2E/DX2                !
 ! D72   D(15,13,14,39)        -39.8006         estimate D2E/DX2                !
 ! D73   D(12,13,15,8)          -2.5091         estimate D2E/DX2                !
 ! D74   D(12,13,15,16)        179.5145         estimate D2E/DX2                !
 ! D75   D(14,13,15,8)         177.5526         estimate D2E/DX2                !
 ! D76   D(14,13,15,16)         -0.4238         estimate D2E/DX2                !
 ! D77   D(8,15,16,17)         118.5089         estimate D2E/DX2                !
 ! D78   D(8,15,16,22)         -68.7869         estimate D2E/DX2                !
 ! D79   D(13,15,16,17)        -63.5207         estimate D2E/DX2                !
 ! D80   D(13,15,16,22)        109.1836         estimate D2E/DX2                !
 ! D81   D(15,16,17,18)       -167.8934         estimate D2E/DX2                !
 ! D82   D(15,16,17,40)         10.0673         estimate D2E/DX2                !
 ! D83   D(22,16,17,18)         19.822          estimate D2E/DX2                !
 ! D84   D(22,16,17,40)       -162.2173         estimate D2E/DX2                !
 ! D85   D(15,16,22,21)        166.5964         estimate D2E/DX2                !
 ! D86   D(15,16,22,45)        -11.0825         estimate D2E/DX2                !
 ! D87   D(17,16,22,21)        -21.209          estimate D2E/DX2                !
 ! D88   D(17,16,22,45)        161.1121         estimate D2E/DX2                !
 ! D89   D(16,17,18,19)          6.4838         estimate D2E/DX2                !
 ! D90   D(16,17,18,41)        178.2328         estimate D2E/DX2                !
 ! D91   D(40,17,18,19)       -171.5045         estimate D2E/DX2                !
 ! D92   D(40,17,18,41)          0.2446         estimate D2E/DX2                !
 ! D93   D(17,18,19,20)        -20.5921         estimate D2E/DX2                !
 ! D94   D(17,18,19,42)        166.312          estimate D2E/DX2                !
 ! D95   D(41,18,19,20)        167.5878         estimate D2E/DX2                !
 ! D96   D(41,18,19,42)         -5.508          estimate D2E/DX2                !
 ! D97   D(18,19,20,21)          1.8784         estimate D2E/DX2                !
 ! D98   D(18,19,20,43)       -175.4111         estimate D2E/DX2                !
 ! D99   D(42,19,20,21)        175.013          estimate D2E/DX2                !
 ! D100  D(42,19,20,43)         -2.2765         estimate D2E/DX2                !
 ! D101  D(19,20,21,22)         16.9634         estimate D2E/DX2                !
 ! D102  D(19,20,21,44)       -168.2139         estimate D2E/DX2                !
 ! D103  D(43,20,21,22)       -165.7517         estimate D2E/DX2                !
 ! D104  D(43,20,21,44)          9.071          estimate D2E/DX2                !
 ! D105  D(20,21,22,16)         -3.614          estimate D2E/DX2                !
 ! D106  D(20,21,22,45)        173.9642         estimate D2E/DX2                !
 ! D107  D(44,21,22,16)       -178.472          estimate D2E/DX2                !
 ! D108  D(44,21,22,45)         -0.8938         estimate D2E/DX2                !
 --------------------------------------------------------------------------------
 Trust Radius=3.00D-01 FncErr=1.00D-07 GrdErr=1.00D-06 EigMax=2.50D+02 EigMin=1.00D-04
 Number of steps in this run=    247 maximum allowed number of steps=    276.
 GradGradGradGradGradGradGradGradGradGradGradGradGradGradGradGradGradGrad

 Leave Link  103 at Fri Jan 24 16:52:55 2025, MaxMem=  3221225472 cpu:               0.9 elap:               0.0
 (Enter /software/gaussian/G16-C.01/avx2/g16/l202.exe)
                          Input orientation:                          
 ---------------------------------------------------------------------
 Center     Atomic      Atomic             Coordinates (Angstroms)
 Number     Number       Type             X           Y           Z
 ---------------------------------------------------------------------
      1          6           0        2.323536    2.332035    2.974516
      2          6           0        2.142604    1.781378    1.588612
      3          6           0        2.505670    2.544503    0.465047
      4          6           0        2.278263    2.010861   -0.810407
      5          6           0        1.697477    0.728247   -0.979715
      6          6           0        1.434989    0.195094   -2.340030
      7          6           0        1.308677    0.017296    0.209281
      8          6           0        0.635210   -1.282624    0.095579
      9          6           0        1.399857   -2.466475    0.173285
     10          6           0        2.905338   -2.422925    0.357422
     11          6           0        0.763849   -3.691422    0.076918
     12          6           0       -0.621002   -3.781795   -0.093504
     13          6           0       -1.396020   -2.651138   -0.142081
     14          6           0       -2.890963   -2.784598   -0.267032
     15          6           0       -0.772430   -1.362632   -0.074637
     16          5           0       -1.630849   -0.024434   -0.138893
     17          6           0       -2.422698    0.253138   -1.451309
     18          6           0       -3.012611    1.409986   -1.793860
     19          6           0       -2.956870    2.721596   -1.104067
     20          6           0       -2.637263    2.990105    0.181393
     21          6           0       -2.222084    2.073354    1.241981
     22          6           0       -1.771222    0.838295    1.163308
     23          7           0        1.544664    0.576465    1.428494
     24          1           0        1.560069    3.131200    3.173211
     25          1           0        2.194007    1.547037    3.700114
     26          1           0        3.346513    2.762180    3.067441
     27          1           0        2.934606    3.498374    0.580738
     28          1           0        2.556840    2.618616   -1.675824
     29          1           0        1.737834   -0.865465   -2.392819
     30          1           0        2.021799    0.759962   -3.103584
     31          1           0        0.361690    0.298989   -2.590104
     32          1           0        3.358958   -1.883829   -0.509887
     33          1           0        3.154580   -1.883064    1.302660
     34          1           0        3.343390   -3.447982    0.406005
     35          1           0        1.340821   -4.635254    0.117921
     36          1           0       -1.065092   -4.749758   -0.153767
     37          1           0       -3.218920   -3.798986    0.049411
     38          1           0       -3.185717   -2.668739   -1.306948
     39          1           0       -3.434523   -2.046564    0.355097
     40          1           0       -2.482958   -0.528444   -2.162667
     41          1           0       -3.489805    1.425622   -2.752770
     42          1           0       -3.313032    3.560874   -1.668935
     43          1           0       -2.741102    4.017558    0.474102
     44          1           0       -2.211039    2.495534    2.245682
     45          1           0       -1.424360    0.355409    2.048451
     46          1           0        1.236538    0.026752    2.330089
 ---------------------------------------------------------------------
                    Distance matrix (angstroms):
                    1          2          3          4          5
     1  C    0.000000
     2  C    1.502228   0.000000
     3  C    2.525024   1.405907   0.000000
     4  C    3.798795   2.413785   1.401168   0.000000
     5  C    4.312775   2.811321   2.457499   1.418124   0.000000
     6  C    5.796588   4.295491   3.812419   2.519497   1.484455
     7  C    3.746262   2.389555   2.808022   2.440115   1.438864
     8  C    4.919805   3.726861   4.275749   3.790445   2.515605
     9  C    5.632564   4.538621   5.139830   4.667524   3.409433
    10  C    5.458693   4.446770   4.984643   4.627689   3.629980
    11  C    6.863726   5.842750   6.486243   5.966308   4.639139
    12  C    7.447279   6.435521   7.078849   6.517250   5.147931
    13  C    6.955594   5.929955   6.525832   5.973378   4.657424
    14  C    7.992408   7.044740   7.619640   7.071957   5.822524
    15  C    5.703763   4.598764   5.128636   4.607444   3.360265
    16  B    5.557286   4.525946   4.906626   4.458084   3.514437
    17  C    6.814432   5.693735   5.762950   5.059582   4.174203
    18  C    7.215404   6.176997   6.069697   5.414940   4.828304
    19  C    6.683509   5.842873   5.686196   5.291313   5.064765
    20  C    5.730979   5.127223   5.169989   5.109303   5.025350
    21  C    4.871474   4.388155   4.814277   4.946647   4.701936
    22  C    4.720040   4.048250   4.657308   4.654975   4.078790
    23  N    2.465533   1.354617   2.392684   2.758322   2.417822
    24  H    1.122954   2.161555   2.927888   4.200021   4.799986
    25  H    1.076797   2.125088   3.399666   4.535089   4.776794
    26  H    1.113616   2.144366   2.743511   4.091864   4.820340
    27  H    2.732018   2.142697   1.052255   2.139806   3.411614
    28  H    4.664999   3.395452   2.142764   1.093580   2.190107
    29  H    6.274977   4.798063   4.514959   3.327061   2.130354
    30  H    6.285361   4.803602   4.019185   2.624725   2.148723
    31  H    6.240762   4.778158   4.355793   3.125872   2.135870
    32  H    5.566568   4.395106   4.613971   4.053002   3.131166
    33  H    4.610076   3.812349   4.552586   4.516153   3.761826
    34  H    6.406711   5.494238   6.051044   5.693252   4.697887
    35  H    7.594010   6.631663   7.281915   6.775797   5.486269
    36  H    8.451080   7.482042   8.144908   7.570678   6.190519
    37  H    8.767239   7.890218   8.554738   8.044416   6.762093
    38  H    8.584320   7.521889   7.918949   7.211122   5.957531
    39  H    7.693421   6.875976   7.508387   7.103310   5.984874
    40  H    7.594430   6.387738   6.421393   5.562903   4.522685
    41  H    8.210866   7.120266   6.895793   6.114399   5.526115
    42  H    7.405578   6.598650   6.280460   5.865337   5.796895
    43  H    5.894372   5.485729   5.449642   5.556152   5.712629
    44  H    4.595683   4.460490   5.041865   5.452377   5.366841
    45  H    4.337208   3.868860   4.769113   4.962157   4.365165
    46  H    2.628913   2.109374   3.380555   3.858056   3.414581
                    6          7          8          9         10
     6  C    0.000000
     7  C    2.558623   0.000000
     8  C    2.958966   1.468427   0.000000
     9  C    3.660865   2.485704   1.411463   0.000000
    10  C    4.036359   2.919923   2.553885   1.517325   0.000000
    11  C    4.625697   3.750860   2.412303   1.383578   2.504744
    12  C    5.008953   4.271818   2.803511   2.425926   3.805908
    13  C    4.576748   3.815676   2.460734   2.819661   4.336273
    14  C    5.647101   5.070943   3.849846   4.325069   5.841050
    15  C    3.525793   2.513129   1.420150   2.449238   3.851867
    16  B    3.780550   2.960368   2.602507   3.904638   5.155200
    17  C    3.959159   4.091007   3.755293   4.964627   6.230633
    18  C    4.642780   4.962428   4.911896   6.194068   7.371658
    19  C    5.215289   5.218526   5.511439   6.894112   7.935208
    20  C    5.545530   4.940527   5.382625   6.787685   7.749342
    21  C    5.452783   4.214275   4.554224   5.905135   6.876731
    22  C    4.792377   3.327159   3.380719   4.685872   5.758058
    23  N    3.789359   1.361925   2.461703   3.294845   3.463376
    24  H    6.247575   4.306330   5.459764   6.352888   6.370771
    25  H    6.235959   3.912777   4.840403   5.401618   5.238338
    26  H    6.283677   4.456034   5.704697   6.285256   5.867211
    27  H    4.657402   3.859991   5.327339   6.172592   5.925582
    28  H    2.751941   3.446505   4.695764   5.533169   5.447263
    29  H    1.104213   2.781073   2.753529   3.043411   3.369358
    30  H    1.116440   3.469175   4.040969   4.640537   4.784348
    31  H    1.106934   2.968618   3.128770   4.044985   4.750460
    32  H    3.372388   2.887063   2.854267   2.155059   1.117417
    33  H    4.532651   2.866044   2.857411   2.166774   1.116712
    34  H    4.945169   4.023296   3.481290   2.189711   1.115791
    35  H    5.420576   4.653558   3.426151   2.170289   2.720197
    36  H    5.956653   5.337733   3.869654   3.375844   4.630311
    37  H    6.581867   5.923571   4.603100   4.808745   6.284500
    38  H    5.533509   5.450992   4.299754   4.822809   6.319138
    39  H    6.000073   5.174816   4.148937   4.855987   6.351022
    40  H    3.988141   4.505603   3.923191   4.928376   6.242887
    41  H    5.092951   5.812276   5.697669   6.900653   8.085942
    42  H    5.858544   6.119218   6.493196   7.869817   8.864541
    43  H    6.322207   5.698503   6.295609   7.699397   8.565963
    44  H    6.293989   4.762036   5.196013   6.477263   7.343983
    45  H    5.240261   3.311549   3.276994   4.410836   5.415257
    46  H    4.677364   2.122055   2.658777   3.300705   3.560510
                   11         12         13         14         15
    11  C    0.000000
    12  C    1.398222   0.000000
    13  C    2.407320   1.371641   0.000000
    14  C    3.781307   2.485405   1.506081   0.000000
    15  C    2.793991   2.423971   1.433060   2.558747   0.000000
    16  B    4.384969   3.890965   2.637181   3.036908   1.591158
    17  C    5.296141   4.622815   3.347082   3.293877   2.688739
    18  C    6.617086   5.963689   4.672736   4.465483   3.957467
    19  C    7.507681   6.983667   5.676965   5.569842   4.744725
    20  C    7.498085   7.071032   5.785234   5.797641   4.742306
    21  C    6.595894   6.215284   4.991877   5.130714   3.954868
    22  C    5.303317   4.924207   3.744457   4.052783   2.715543
    23  N    4.544370   5.099119   4.640232   5.817762   3.374675
    24  H    7.534532   7.950975   7.291437   8.163555   6.015280
    25  H    6.527967   7.121254   6.728702   7.769056   5.613793
    26  H    7.567190   8.279877   7.880144   8.988414   6.622117
    27  H    7.527230   8.130056   7.556010   8.609978   6.148253
    28  H    6.789956   7.318994   6.763710   7.801153   5.431222
    29  H    3.877407   4.399538   4.251528   5.443143   3.452908
    30  H    5.613631   6.055785   5.664591   6.689183   4.635477
    31  H    4.816443   4.883799   4.217299   5.048260   3.220991
    32  H    3.216571   4.428965   4.830514   6.319168   4.186820
    33  H    3.238549   4.450783   4.835822   6.310729   4.193949
    34  H    2.611818   4.009657   4.837083   6.305571   4.638931
    35  H    1.106976   2.149847   3.390371   4.634772   3.900380
    36  H    2.125633   1.066678   2.124584   2.684862   3.400667
    37  H    3.984316   2.601902   2.162681   1.112059   3.454927
    38  H    4.308136   3.047803   2.135472   1.087073   3.008065
    39  H    4.517662   3.335891   2.183618   1.107789   2.781936
    40  H    5.055880   4.281659   3.125705   2.974917   2.825180
    41  H    7.230826   6.512980   5.274429   4.925795   4.725556
    42  H    8.500868   7.977705   6.677971   6.512180   5.765184
    43  H    8.477666   8.102278   6.830844   6.844054   5.755278
    44  H    7.199439   6.885119   5.731832   5.886920   4.726407
    45  H    5.005202   4.727558   3.720021   4.167977   2.807878
    46  H    4.373218   4.881525   4.495896   5.628943   3.427689
                   16         17         18         19         20
    16  B    0.000000
    17  C    1.557725   0.000000
    18  C    2.589545   1.342995   0.000000
    19  C    3.198527   2.549353   1.482984   0.000000
    20  C    3.194197   3.194174   2.557203   1.351538   0.000000
    21  C    2.580133   3.256877   3.206450   2.542453   1.462070
    22  C    1.568354   2.757364   3.257717   3.177039   2.518823
    23  N    3.591889   4.913020   5.643322   5.592786   4.986926
    24  H    5.577636   6.747730   6.967336   6.234230   5.156402
    25  H    5.642430   7.037421   7.570429   7.140817   6.148577
    26  H    6.543694   7.745850   8.117828   7.558820   6.647315
    27  H    5.811319   6.584943   6.735686   6.176685   5.609237
    28  H    5.185038   5.517399   5.700307   5.544232   5.528650
    29  H    4.139510   4.409959   5.301241   6.047159   6.374438
    30  H    4.769330   4.768693   5.242441   5.712549   6.121394
    31  H    3.175413   3.008616   3.640635   4.369229   4.890503
    32  H    5.337899   6.235419   7.286611   7.839176   7.758078
    33  H    5.332253   6.576757   7.646363   8.021537   7.651828
    34  H    6.063056   7.098991   8.296867   8.946356   8.790200
    35  H    5.491487   6.365762   7.691047   8.607360   8.600888
    36  H    4.759095   5.343751   6.665222   7.765502   7.905032
    37  H    4.099350   4.393841   5.529340   6.627004   6.815240
    38  H    3.282425   3.023309   4.111331   5.399003   5.876944
    39  H    2.754318   3.094433   4.091914   5.009257   5.102335
    40  H    2.252948   1.058551   2.043052   3.450795   4.230675
    41  H    3.520047   2.051155   1.071199   2.163744   3.432746
    42  H    4.245610   3.432371   2.175357   1.072527   2.050892
    43  H    4.236287   4.240218   3.466526   2.053458   1.073369
    44  H    3.517536   4.329074   4.258971   3.439213   2.165076
    45  H    2.229662   3.640804   4.289292   4.229160   3.449443
    46  H    3.784230   5.266899   6.080753   6.053122   5.329605
                   21         22         23         24         25
    21  C    0.000000
    22  C    1.317132   0.000000
    23  N    4.057567   3.336762   0.000000
    24  H    4.376456   4.516040   3.093694   0.000000
    25  H    5.081465   4.760329   2.554195   1.785798   0.000000
    26  H    5.900513   5.789496   3.272638   1.827224   1.790284
    27  H    5.390674   5.436931   3.344874   2.957209   3.753226
    28  H    5.625745   5.473786   3.851191   4.976890   5.493690
    29  H    6.126122   5.278477   4.088877   6.854606   6.569025
    30  H    6.214457   5.709598   4.560819   6.725632   6.851237
    31  H    4.950669   4.350663   4.198279   6.532482   6.669471
    32  H    7.062321   6.043864   3.619673   6.477016   5.554463
    33  H    6.675736   5.629276   2.942270   5.584288   4.293726
    34  H    7.884067   6.716021   4.525160   7.356854   6.092820
    35  H    7.678751   6.382584   5.377841   8.348693   7.195884
    36  H    7.059859   5.784432   6.138651   8.948171   8.069929
    37  H    6.074561   4.984072   6.613484   8.979106   8.438446
    38  H    5.469284   4.516885   6.355352   8.731185   8.472595
    39  H    4.385236   3.426687   5.729290   7.726380   7.468832
    40  H    4.292905   3.665604   5.508085   7.629590   7.781633
    41  H    4.240838   4.316729   6.599236   7.970412   8.600009
    42  H    3.446203   4.220333   6.488295   6.883176   7.950452
    43  H    2.153821   3.394611   5.578510   5.154697   6.392646
    44  H    1.088932   2.027662   4.296036   3.935179   4.734918
    45  H    2.058663   1.066288   3.041104   4.228110   4.152174
    46  H    4.163487   3.326650   1.100000   3.233129   2.259421
                   26         27         28         29         30
    26  H    0.000000
    27  H    2.625898   0.000000
    28  H    4.810692   2.451276   0.000000
    29  H    6.749970   5.414554   3.650160   0.000000
    30  H    6.621578   4.680422   2.404031   1.796618   0.000000
    31  H    6.854509   5.187504   3.321936   1.813463   1.797810
    32  H    5.863688   5.507963   4.719620   2.685245   3.937626
    33  H    4.972885   5.434100   5.430818   4.086471   5.261537
    34  H    6.756432   6.960567   6.461910   4.132870   5.636543
    35  H    8.212460   8.301220   7.570657   4.546729   6.320616
    36  H    9.288039   9.196128   8.350329   5.287484   6.970462
    37  H    9.760242   9.560317   8.804627   6.256153   7.628271
    38  H    9.555113   8.891287   7.814675   5.354649   6.488614
    39  H    8.744328   8.447665   7.860341   5.974890   7.043472
    40  H    8.494996   7.286393   5.961591   4.240476   4.778927
    41  H    9.077251   7.528720   6.256593   5.718990   5.562728
    42  H    8.211011   6.640626   5.945022   6.754829   6.193846
    43  H    6.735016   5.700402   5.886205   7.219696   6.789476
    44  H    5.624302   5.500489   6.174627   6.957413   7.038733
    45  H    5.439864   5.570726   5.902735   5.587028   6.211533
    46  H    3.532457   4.242149   4.950585   4.832516   5.538866
                   31         32         33         34         35
    31  H    0.000000
    32  H    4.251543   0.000000
    33  H    5.264523   1.824034   0.000000
    34  H    5.648628   1.812643   1.813452   0.000000
    35  H    5.713042   3.469490   3.502553   2.345824   0.000000
    36  H    5.784574   5.283237   5.305163   4.630625   2.423911
    37  H    6.048240   6.873800   6.772214   6.581358   4.636299
    38  H    4.799791   6.639591   6.901211   6.794900   5.136826
    39  H    5.346686   6.850260   6.658895   6.921464   5.437047
    40  H    2.993220   6.220670   6.754652   7.004863   6.057083
    41  H    4.016189   7.930230   8.458237   8.967855   8.264988
    42  H    4.999201   8.689282   8.960851   9.886222   9.593107
    43  H    5.731005   8.544316   8.382298   9.631198   9.573929
    44  H    5.901573   7.602424   6.989369   8.340352   8.245678
    45  H    4.970849   5.868510   5.151083   6.316237   6.023279
    46  H    5.004775   4.027463   2.895150   4.496076   5.161285
                   36         37         38         39         40
    36  H    0.000000
    37  H    2.363095   0.000000
    38  H    3.187086   1.765863   0.000000
    39  H    3.630482   1.791902   1.792037   0.000000
    40  H    4.885234   4.016389   2.409769   3.090194   0.000000
    41  H    7.125263   5.934824   4.352776   4.660254   2.276035
    42  H    8.741600   7.558380   6.241419   5.962786   4.201822
    43  H    8.948132   7.842642   6.933713   6.104798   5.261684
    44  H    7.717824   6.742434   6.343571   5.069702   5.352749
    45  H    5.571496   4.947282   4.848355   3.560572   4.431178
    46  H    5.855091   6.299910   6.328510   5.478872   5.858988
                   41         42         43         44         45
    41  H    0.000000
    42  H    2.401092   0.000000
    43  H    4.206113   2.264569   0.000000
    44  H    5.269200   4.203994   2.394999   0.000000
    45  H    5.335086   5.259377   4.198062   2.288646   0.000000
    46  H    7.080297   7.012902   5.932356   4.241202   2.695869
                   46
    46  H    0.000000
 Stoichiometry    C21H23BN(1+)
 Framework group  C1[X(C21H23BN)]
 Deg. of freedom   132
 Full point group                 C1      NOp   1
 Largest Abelian subgroup         C1      NOp   1
 Largest concise Abelian subgroup C1      NOp   1
                         Standard orientation:                         
 ---------------------------------------------------------------------
 Center     Atomic      Atomic             Coordinates (Angstroms)
 Number     Number       Type             X           Y           Z
 ---------------------------------------------------------------------
      1          6           0       -2.976897   -2.635827   -1.911079
      2          6           0       -2.208195   -2.198443   -0.696796
      3          6           0       -2.828077   -2.161561    0.564537
      4          6           0       -2.087752   -1.704450    1.662827
      5          6           0       -0.739871   -1.287213    1.520682
      6          6           0        0.016452   -0.775473    2.691027
      7          6           0       -0.178367   -1.308182    0.196068
      8          6           0        1.188023   -0.818247   -0.025786
      9          6           0        2.258691   -1.737891   -0.038084
     10          6           0        2.028180   -3.220519    0.187650
     11          6           0        3.544802   -1.277544   -0.257827
     12          6           0        3.806452    0.079428   -0.470406
     13          6           0        2.784796    0.994311   -0.494999
     14          6           0        3.093669    2.439528   -0.785213
     15          6           0        1.441877    0.561989   -0.243350
     16          5           0        0.227447    1.590042   -0.250466
     17          6           0        0.235971    2.712118    0.829989
     18          6           0       -0.786940    3.525730    1.138733
     19          6           0       -2.185705    3.487624    0.647563
     20          6           0       -2.676730    2.902164   -0.467240
     21          6           0       -1.979117    2.112952   -1.481208
     22          6           0       -0.801265    1.525472   -1.432547
     23          7           0       -0.936245   -1.756040   -0.843107
     24          1           0       -3.711102   -1.839864   -2.208423
     25          1           0       -2.300553   -2.801563   -2.732407
     26          1           0       -3.522403   -3.578703   -1.679671
     27          1           0       -3.828633   -2.466469    0.679247
     28          1           0       -2.584720   -1.672192    2.636429
     29          1           0        1.034631   -1.202754    2.696446
     30          1           0       -0.486432   -1.069915    3.643313
     31          1           0        0.065999    0.329908    2.659731
     32          1           0        1.580375   -3.365323    1.201121
     33          1           0        1.329034   -3.616251   -0.588002
     34          1           0        2.981860   -3.797408    0.135844
     35          1           0        4.405016   -1.974269   -0.256182
     36          1           0        4.814143    0.383204   -0.643839
     37          1           0        4.078051    2.532500   -1.294158
     38          1           0        3.167359    2.994951    0.146346
     39          1           0        2.332557    2.911591   -1.437180
     40          1           0        1.117481    2.834812    1.403065
     41          1           0       -0.607516    4.221921    1.932831
     42          1           0       -2.887919    4.087054    1.193360
     43          1           0       -3.719570    3.074803   -0.653794
     44          1           0       -2.546055    1.914535   -2.389495
     45          1           0       -0.496484    0.906366   -2.245435
     46          1           0       -0.498621   -1.760683   -1.852297
 ---------------------------------------------------------------------
 Rotational constants (GHZ):           0.2901526           0.2825611           0.1835170
 Leave Link  202 at Fri Jan 24 16:52:55 2025, MaxMem=  3221225472 cpu:               0.5 elap:               0.0
 (Enter /software/gaussian/G16-C.01/avx2/g16/l301.exe)
 Standard basis: def2SVP (5D, 7F)
 Ernie: Thresh=  0.10000D-02 Tol=  0.10000D-05 Strict=F.
 There are   460 symmetry adapted cartesian basis functions of A   symmetry.
 There are   437 symmetry adapted basis functions of A   symmetry.
   437 basis functions,   736 primitive gaussians,   460 cartesian basis functions
    80 alpha electrons       80 beta electrons
       nuclear repulsion energy      1847.8467310610 Hartrees.
 IExCor= 1009 DFT=T Ex+Corr=PBE1PBE ExCW=0 ScaHFX=  0.250000
 ScaDFX=  0.750000  0.750000  1.000000  1.000000 ScalE2=  1.000000  1.000000
 IRadAn=      5 IRanWt=     -1 IRanGd=            0 ICorTp=0 IEmpDi=141
 NAtoms=   46 NActive=   46 NUniq=   46 SFac= 1.00D+00 NAtFMM=   60 NAOKFM=F Big=F
 Integral buffers will be    131072 words long.
 Raffenetti 2 integral format.
 Two-electron integral symmetry is turned on.
 R6Disp:  Grimme-D3(BJ) Dispersion energy=       -0.0585498604 Hartrees.
 Nuclear repulsion after empirical dispersion term =     1847.7881812006 Hartrees.
 Leave Link  301 at Fri Jan 24 16:52:55 2025, MaxMem=  3221225472 cpu:               1.2 elap:               0.1
 (Enter /software/gaussian/G16-C.01/avx2/g16/l302.exe)
 NPDir=0 NMtPBC=     1 NCelOv=     1 NCel=       1 NClECP=     1 NCelD=      1
         NCelK=      1 NCelE2=     1 NClLst=     1 CellRange=     0.0.
 One-electron integrals computed using PRISM.
 One-electron integral symmetry used in STVInt
   1 Symmetry operations used in ECPInt.
 ECPInt:  NShTT=   21528 NPrTT=   77004 LenC2=   19993 LenP2D=   49575.
 LDataN:  DoStor=T MaxTD1= 4 Len=   56
 NBasis=   437 RedAO= T EigKep=  2.14D-04  NBF=   437
 NBsUse=   437 1.00D-06 EigRej= -1.00D+00 NBFU=   437
 Precomputing XC quadrature grid using
 IXCGrd= 4 IRadAn=           5 IRanWt=          -1 IRanGd=           0 AccXCQ= 0.00D+00.
 Generated NRdTot=       0 NPtTot=           0 NUsed=           0 NTot=          32
 NSgBfM=   458   457   457   458   458 MxSgAt=    46 MxSgA2=    46.
 Leave Link  302 at Fri Jan 24 16:52:55 2025, MaxMem=  3221225472 cpu:              12.6 elap:               0.5
 (Enter /software/gaussian/G16-C.01/avx2/g16/l303.exe)
 DipDrv:  MaxL=1.
 Leave Link  303 at Fri Jan 24 16:52:55 2025, MaxMem=  3221225472 cpu:               1.8 elap:               0.1
 (Enter /software/gaussian/G16-C.01/avx2/g16/l401.exe)
 ExpMin= 8.36D-02 ExpMax= 1.71D+03 ExpMxC= 2.58D+02 IAcc=3 IRadAn=         5 AccDes= 0.00D+00
 Harris functional with IExCor= 1009 and IRadAn=       5 diagonalized for initial guess.
 HarFok:  IExCor= 1009 AccDes= 0.00D+00 IRadAn=         5 IDoV= 1 UseB2=F ITyADJ=14
 ICtDFT=  3500011 ScaDFX=  1.000000  1.000000  1.000000  1.000000
 FoFCou: FMM=F IPFlag=           0 FMFlag=      100000 FMFlg1=           0
         NFxFlg=           0 DoJE=T BraDBF=F KetDBF=T FulRan=T
         wScrn=  0.000000 ICntrl=       500 IOpCl=  0 I1Cent=   200000004 NGrid=           0
         NMat0=    1 NMatS0=      1 NMatT0=    0 NMatD0=    1 NMtDS0=    0 NMtDT0=    0
 Petite list used in FoFCou.
 Harris En= -892.103007414901    
 JPrj=0 DoOrth=F DoCkMO=F.
 Leave Link  401 at Fri Jan 24 16:52:57 2025, MaxMem=  3221225472 cpu:              32.5 elap:               1.4
 (Enter /software/gaussian/G16-C.01/avx2/g16/l502.exe)
 Integral symmetry usage will be decided dynamically.
 Closed shell SCF:
 Using DIIS extrapolation, IDIIS=  1040.
 NGot=  3221225472 LenX=  3220785178 LenY=  3220573118
 Requested convergence on RMS density matrix=1.00D-08 within 128 cycles.
 Requested convergence on MAX density matrix=1.00D-06.
 Requested convergence on             energy=1.00D-06.
 No special actions if energy rises.
 Fock matrices will be formed incrementally for  20 cycles.
 Integral accuracy reduced to 1.0D-05 until final iterations.

 Cycle   1  Pass 0  IDiag  1:
 FoFJK:  IHMeth= 1 ICntrl=       0 DoSepK=F KAlg= 0 I1Cent=           0 FoldK=F
 IRaf= 860000000 NMat=       1 IRICut=       1 DoRegI=T DoRafI=F ISym2E= 0 IDoP0=0 IntGTp=1.
 FoFCou: FMM=F IPFlag=           0 FMFlag=      100000 FMFlg1=           0
         NFxFlg=           0 DoJE=F BraDBF=F KetDBF=F FulRan=T
         wScrn=  0.000000 ICntrl=         0 IOpCl=  0 I1Cent=           0 NGrid=           0
         NMat0=    1 NMatS0=      1 NMatT0=    0 NMatD0=    1 NMtDS0=    0 NMtDT0=    0
 Symmetry not used in FoFCou.
 E= -891.335606866647    
 DIIS: error= 1.53D-02 at cycle   1 NSaved=   1.
 NSaved= 1 IEnMin= 1 EnMin= -891.335606866647     IErMin= 1 ErrMin= 1.53D-02
 ErrMax= 1.53D-02  0.00D+00 EMaxC= 1.00D-01 BMatC= 4.13D-01 BMatP= 4.13D-01
 IDIUse=3 WtCom= 8.47D-01 WtEn= 1.53D-01
 Coeff-Com:  0.100D+01
 Coeff-En:   0.100D+01
 Coeff:      0.100D+01
 Gap=     0.319 Goal=   None    Shift=    0.000
 GapD=    0.319 DampG=1.000 DampE=0.500 DampFc=0.5000 IDamp=-1.
 Damping current iteration by 5.00D-01
 RMSDP=4.50D-03 MaxDP=1.37D-01              OVMax= 2.12D-01

 Cycle   2  Pass 0  IDiag  1:
 RMSU=  2.18D-03    CP:  9.64D-01
 E= -891.541953502228     Delta-E=       -0.206346635581 Rises=F Damp=T
 DIIS: error= 7.37D-03 at cycle   2 NSaved=   2.
 NSaved= 2 IEnMin= 2 EnMin= -891.541953502228     IErMin= 2 ErrMin= 7.37D-03
 ErrMax= 7.37D-03  0.00D+00 EMaxC= 1.00D-01 BMatC= 3.46D-02 BMatP= 4.13D-01
 IDIUse=3 WtCom= 9.26D-01 WtEn= 7.37D-02
 Coeff-Com:  0.682D-01 0.932D+00
 Coeff-En:   0.110D+00 0.890D+00
 Coeff:      0.712D-01 0.929D+00
 Gap=     0.161 Goal=   None    Shift=    0.000
 RMSDP=1.73D-03 MaxDP=9.53D-02 DE=-2.06D-01 OVMax= 2.04D-01

 Cycle   3  Pass 0  IDiag  1:
 RMSU=  1.67D-03    CP:  9.36D-01  9.33D-01
 E= -891.757474881483     Delta-E=       -0.215521379255 Rises=F Damp=F
 DIIS: error= 1.00D-02 at cycle   3 NSaved=   3.
 NSaved= 3 IEnMin= 3 EnMin= -891.757474881483     IErMin= 2 ErrMin= 7.37D-03
 ErrMax= 1.00D-02  0.00D+00 EMaxC= 1.00D-01 BMatC= 5.10D-02 BMatP= 3.46D-02
 IDIUse=3 WtCom= 9.09D-02 WtEn= 9.09D-01
 Coeff-Com: -0.174D-01 0.563D+00 0.454D+00
 Coeff-En:   0.000D+00 0.000D+00 0.100D+01
 Coeff:     -0.158D-02 0.512D-01 0.950D+00
 Gap=     0.129 Goal=   None    Shift=    0.000
 RMSDP=1.93D-03 MaxDP=9.43D-02 DE=-2.16D-01 OVMax= 2.12D-01

 Cycle   4  Pass 0  IDiag  1:
 RMSU=  1.21D-03    CP:  9.44D-01  1.32D+00  2.56D-01
 E= -891.588692764959     Delta-E=        0.168782116525 Rises=F Damp=F
 DIIS: error= 2.22D-02 at cycle   4 NSaved=   4.
 NSaved= 4 IEnMin= 3 EnMin= -891.757474881483     IErMin= 2 ErrMin= 7.37D-03
 ErrMax= 2.22D-02  0.00D+00 EMaxC= 1.00D-01 BMatC= 2.07D-01 BMatP= 3.46D-02
 IDIUse=2 WtCom= 0.00D+00 WtEn= 1.00D+00
 Coeff-En:   0.000D+00 0.000D+00 0.746D+00 0.254D+00
 Coeff:      0.000D+00 0.000D+00 0.746D+00 0.254D+00
 Gap=     0.133 Goal=   None    Shift=    0.000
 RMSDP=1.03D-03 MaxDP=5.59D-02 DE= 1.69D-01 OVMax= 9.73D-02

 Cycle   5  Pass 0  IDiag  1:
 RMSU=  1.92D-04    CP:  9.40D-01  1.10D+00  6.43D-01  4.86D-01
 E= -891.800709168296     Delta-E=       -0.212016403337 Rises=F Damp=F
 DIIS: error= 5.77D-03 at cycle   5 NSaved=   5.
 NSaved= 5 IEnMin= 5 EnMin= -891.800709168296     IErMin= 5 ErrMin= 5.77D-03
 ErrMax= 5.77D-03  0.00D+00 EMaxC= 1.00D-01 BMatC= 1.19D-02 BMatP= 3.46D-02
 IDIUse=3 WtCom= 9.42D-01 WtEn= 5.77D-02
 Coeff-Com:  0.358D-02 0.349D-02 0.329D+00 0.651D-02 0.657D+00
 Coeff-En:   0.000D+00 0.000D+00 0.235D+00 0.000D+00 0.765D+00
 Coeff:      0.337D-02 0.328D-02 0.324D+00 0.614D-02 0.663D+00
 Gap=     0.143 Goal=   None    Shift=    0.000
 RMSDP=3.19D-04 MaxDP=1.82D-02 DE=-2.12D-01 OVMax= 3.23D-02

 Cycle   6  Pass 0  IDiag  1:
 RMSU=  8.17D-05    CP:  9.38D-01  1.04D+00  7.65D-01  3.44D-01  6.79D-01
 E= -891.813300281119     Delta-E=       -0.012591112823 Rises=F Damp=F
 DIIS: error= 8.49D-04 at cycle   6 NSaved=   6.
 NSaved= 6 IEnMin= 6 EnMin= -891.813300281119     IErMin= 6 ErrMin= 8.49D-04
 ErrMax= 8.49D-04  0.00D+00 EMaxC= 1.00D-01 BMatC= 2.96D-04 BMatP= 1.19D-02
 IDIUse=3 WtCom= 9.92D-01 WtEn= 8.49D-03
 Coeff-Com: -0.178D-02 0.104D-02 0.109D+00-0.508D-01 0.443D+00 0.499D+00
 Coeff-En:   0.000D+00 0.000D+00 0.000D+00 0.000D+00 0.000D+00 0.100D+01
 Coeff:     -0.177D-02 0.103D-02 0.108D+00-0.504D-01 0.439D+00 0.504D+00
 Gap=     0.142 Goal=   None    Shift=    0.000
 RMSDP=5.47D-05 MaxDP=2.00D-03 DE=-1.26D-02 OVMax= 5.82D-03

 Cycle   7  Pass 0  IDiag  1:
 RMSU=  2.37D-05    CP:  9.38D-01  1.04D+00  7.64D-01  3.36D-01  8.11D-01
                    CP:  4.98D-01
 E= -891.813615323851     Delta-E=       -0.000315042732 Rises=F Damp=F
 DIIS: error= 1.13D-04 at cycle   7 NSaved=   7.
 NSaved= 7 IEnMin= 7 EnMin= -891.813615323851     IErMin= 7 ErrMin= 1.13D-04
 ErrMax= 1.13D-04  0.00D+00 EMaxC= 1.00D-01 BMatC= 1.45D-05 BMatP= 2.96D-04
 IDIUse=3 WtCom= 9.99D-01 WtEn= 1.13D-03
 Coeff-Com: -0.123D-02 0.113D-02 0.523D-01-0.312D-01 0.238D+00 0.309D+00
 Coeff-Com:  0.431D+00
 Coeff-En:   0.000D+00 0.000D+00 0.000D+00 0.000D+00 0.000D+00 0.000D+00
 Coeff-En:   0.100D+01
 Coeff:     -0.123D-02 0.113D-02 0.522D-01-0.312D-01 0.238D+00 0.309D+00
 Coeff:      0.432D+00
 Gap=     0.142 Goal=   None    Shift=    0.000
 RMSDP=1.34D-05 MaxDP=5.15D-04 DE=-3.15D-04 OVMax= 1.42D-03

 Cycle   8  Pass 0  IDiag  1:
 RMSU=  6.45D-06    CP:  9.38D-01  1.04D+00  7.65D-01  3.37D-01  8.03D-01
                    CP:  5.50D-01  5.47D-01
 E= -891.813631461939     Delta-E=       -0.000016138089 Rises=F Damp=F
 DIIS: error= 3.12D-05 at cycle   8 NSaved=   8.
 NSaved= 8 IEnMin= 8 EnMin= -891.813631461939     IErMin= 8 ErrMin= 3.12D-05
 ErrMax= 3.12D-05  0.00D+00 EMaxC= 1.00D-01 BMatC= 5.69D-07 BMatP= 1.45D-05
 IDIUse=1 WtCom= 1.00D+00 WtEn= 0.00D+00
 Coeff-Com: -0.409D-03 0.390D-03 0.149D-01-0.105D-01 0.729D-01 0.105D+00
 Coeff-Com:  0.207D+00 0.610D+00
 Coeff:     -0.409D-03 0.390D-03 0.149D-01-0.105D-01 0.729D-01 0.105D+00
 Coeff:      0.207D+00 0.610D+00
 Gap=     0.142 Goal=   None    Shift=    0.000
 RMSDP=2.99D-06 MaxDP=1.25D-04 DE=-1.61D-05 OVMax= 3.15D-04

 Initial convergence to 1.0D-05 achieved.  Increase integral accuracy.
 Cycle   9  Pass 1  IDiag  1:
 E= -891.813656829441     Delta-E=       -0.000025367502 Rises=F Damp=F
 DIIS: error= 2.24D-04 at cycle   1 NSaved=   1.
 NSaved= 1 IEnMin= 1 EnMin= -891.813656829441     IErMin= 1 ErrMin= 2.24D-04
 ErrMax= 2.24D-04  0.00D+00 EMaxC= 1.00D-01 BMatC= 4.67D-06 BMatP= 4.67D-06
 IDIUse=3 WtCom= 9.98D-01 WtEn= 2.24D-03
 Coeff-Com:  0.100D+01
 Coeff-En:   0.100D+01
 Coeff:      0.100D+01
 Gap=     0.142 Goal=   None    Shift=    0.000
 RMSDP=2.99D-06 MaxDP=1.25D-04 DE=-2.54D-05 OVMax= 4.57D-04

 Cycle  10  Pass 1  IDiag  1:
 RMSU=  1.20D-04    CP:  1.00D+00
 E= -891.813661106300     Delta-E=       -0.000004276859 Rises=F Damp=F
 DIIS: error= 2.32D-05 at cycle   2 NSaved=   2.
 NSaved= 2 IEnMin= 2 EnMin= -891.813661106300     IErMin= 2 ErrMin= 2.32D-05
 ErrMax= 2.32D-05  0.00D+00 EMaxC= 1.00D-01 BMatC= 3.32D-07 BMatP= 4.67D-06
 IDIUse=1 WtCom= 1.00D+00 WtEn= 0.00D+00
 Coeff-Com:  0.869D-01 0.913D+00
 Coeff:      0.869D-01 0.913D+00
 Gap=     0.142 Goal=   None    Shift=    0.000
 RMSDP=5.33D-06 MaxDP=2.08D-04 DE=-4.28D-06 OVMax= 5.78D-04

 Cycle  11  Pass 1  IDiag  1:
 RMSU=  5.07D-06    CP:  1.00D+00  1.01D+00
 E= -891.813660349555     Delta-E=        0.000000756745 Rises=F Damp=F
 DIIS: error= 4.04D-05 at cycle   3 NSaved=   3.
 NSaved= 3 IEnMin= 2 EnMin= -891.813661106300     IErMin= 2 ErrMin= 2.32D-05
 ErrMax= 4.04D-05  0.00D+00 EMaxC= 1.00D-01 BMatC= 9.83D-07 BMatP= 3.32D-07
 IDIUse=1 WtCom= 1.00D+00 WtEn= 0.00D+00
 Coeff-Com: -0.525D-02 0.636D+00 0.369D+00
 Coeff:     -0.525D-02 0.636D+00 0.369D+00
 Gap=     0.142 Goal=   None    Shift=    0.000
 RMSDP=3.26D-06 MaxDP=1.32D-04 DE= 7.57D-07 OVMax= 3.87D-04

 Cycle  12  Pass 1  IDiag  1:
 RMSU=  7.02D-07    CP:  1.00D+00  1.02D+00  3.78D-01
 E= -891.813661481753     Delta-E=       -0.000001132198 Rises=F Damp=F
 DIIS: error= 3.80D-06 at cycle   4 NSaved=   4.
 NSaved= 4 IEnMin= 4 EnMin= -891.813661481753     IErMin= 4 ErrMin= 3.80D-06
 ErrMax= 3.80D-06  0.00D+00 EMaxC= 1.00D-01 BMatC= 8.79D-09 BMatP= 3.32D-07
 IDIUse=1 WtCom= 1.00D+00 WtEn= 0.00D+00
 Coeff-Com: -0.453D-02 0.360D+00 0.217D+00 0.428D+00
 Coeff:     -0.453D-02 0.360D+00 0.217D+00 0.428D+00
 Gap=     0.142 Goal=   None    Shift=    0.000
 RMSDP=3.07D-07 MaxDP=1.37D-05 DE=-1.13D-06 OVMax= 2.77D-05

 Cycle  13  Pass 1  IDiag  1:
 RMSU=  2.01D-07    CP:  1.00D+00  1.02D+00  3.85D-01  6.74D-01
 E= -891.813661491286     Delta-E=       -0.000000009534 Rises=F Damp=F
 DIIS: error= 9.01D-07 at cycle   5 NSaved=   5.
 NSaved= 5 IEnMin= 5 EnMin= -891.813661491286     IErMin= 5 ErrMin= 9.01D-07
 ErrMax= 9.01D-07  0.00D+00 EMaxC= 1.00D-01 BMatC= 1.60D-10 BMatP= 8.79D-09
 IDIUse=1 WtCom= 1.00D+00 WtEn= 0.00D+00
 Coeff-Com: -0.217D-02 0.167D+00 0.100D+00 0.218D+00 0.518D+00
 Coeff:     -0.217D-02 0.167D+00 0.100D+00 0.218D+00 0.518D+00
 Gap=     0.142 Goal=   None    Shift=    0.000
 RMSDP=5.64D-08 MaxDP=1.87D-06 DE=-9.53D-09 OVMax= 5.66D-06

 Cycle  14  Pass 1  IDiag  1:
 RMSU=  5.43D-08    CP:  1.00D+00  1.02D+00  3.84D-01  6.85D-01  9.64D-01
 E= -891.813661491412     Delta-E=       -0.000000000126 Rises=F Damp=F
 DIIS: error= 2.99D-07 at cycle   6 NSaved=   6.
 NSaved= 6 IEnMin= 6 EnMin= -891.813661491412     IErMin= 6 ErrMin= 2.99D-07
 ErrMax= 2.99D-07  0.00D+00 EMaxC= 1.00D-01 BMatC= 2.67D-11 BMatP= 1.60D-10
 IDIUse=1 WtCom= 1.00D+00 WtEn= 0.00D+00
 Coeff-Com: -0.251D-03 0.170D-01 0.101D-01 0.297D-01 0.292D+00 0.652D+00
 Coeff:     -0.251D-03 0.170D-01 0.101D-01 0.297D-01 0.292D+00 0.652D+00
 Gap=     0.142 Goal=   None    Shift=    0.000
 RMSDP=2.21D-08 MaxDP=8.19D-07 DE=-1.26D-10 OVMax= 2.52D-06

 Cycle  15  Pass 1  IDiag  1:
 RMSU=  1.80D-08    CP:  1.00D+00  1.02D+00  3.84D-01  6.88D-01  9.93D-01
                    CP:  8.03D-01
 E= -891.813661491459     Delta-E=       -0.000000000047 Rises=F Damp=F
 DIIS: error= 1.02D-07 at cycle   7 NSaved=   7.
 NSaved= 7 IEnMin= 7 EnMin= -891.813661491459     IErMin= 7 ErrMin= 1.02D-07
 ErrMax= 1.02D-07  0.00D+00 EMaxC= 1.00D-01 BMatC= 7.83D-12 BMatP= 2.67D-11
 IDIUse=1 WtCom= 1.00D+00 WtEn= 0.00D+00
 Coeff-Com:  0.117D-03-0.107D-01-0.656D-02-0.932D-02 0.129D+00 0.445D+00
 Coeff-Com:  0.453D+00
 Coeff:      0.117D-03-0.107D-01-0.656D-02-0.932D-02 0.129D+00 0.445D+00
 Coeff:      0.453D+00
 Gap=     0.142 Goal=   None    Shift=    0.000
 RMSDP=1.06D-08 MaxDP=4.28D-07 DE=-4.68D-11 OVMax= 7.53D-07

 Cycle  16  Pass 1  IDiag  1:
 RMSU=  6.16D-09    CP:  1.00D+00  1.02D+00  3.84D-01  6.94D-01  9.99D-01
                    CP:  8.35D-01  5.93D-01
 E= -891.813661491468     Delta-E=       -0.000000000009 Rises=F Damp=F
 DIIS: error= 2.16D-08 at cycle   8 NSaved=   8.
 NSaved= 8 IEnMin= 8 EnMin= -891.813661491468     IErMin= 8 ErrMin= 2.16D-08
 ErrMax= 2.16D-08  0.00D+00 EMaxC= 1.00D-01 BMatC= 4.51D-13 BMatP= 7.83D-12
 IDIUse=1 WtCom= 1.00D+00 WtEn= 0.00D+00
 Coeff-Com:  0.906D-04-0.776D-02-0.475D-02-0.832D-02 0.522D-01 0.214D+00
 Coeff-Com:  0.250D+00 0.505D+00
 Coeff:      0.906D-04-0.776D-02-0.475D-02-0.832D-02 0.522D-01 0.214D+00
 Coeff:      0.250D+00 0.505D+00
 Gap=     0.142 Goal=   None    Shift=    0.000
 RMSDP=2.59D-09 MaxDP=1.16D-07 DE=-9.09D-12 OVMax= 2.79D-07

 SCF Done:  E(RPBE1PBE) =  -891.813661491     A.U. after   16 cycles
            NFock= 16  Conv=0.26D-08     -V/T= 2.0114
 KE= 8.818008345857D+02 PE=-5.738104052064D+03 EE= 2.116701374786D+03
 Leave Link  502 at Fri Jan 24 16:53:46 2025, MaxMem=  3221225472 cpu:            1170.9 elap:              48.9
 (Enter /software/gaussian/G16-C.01/avx2/g16/l601.exe)
 Copying SCF densities to generalized density rwf, IOpCl= 0 IROHF=0.

 **********************************************************************

            Population analysis using the SCF Density.

 **********************************************************************

 Orbital symmetries:
       Occupied  (A) (A) (A) (A) (A) (A) (A) (A) (A) (A) (A) (A)
                 (A) (A) (A) (A) (A) (A) (A) (A) (A) (A) (A) (A)
                 (A) (A) (A) (A) (A) (A) (A) (A) (A) (A) (A) (A)
                 (A) (A) (A) (A) (A) (A) (A) (A) (A) (A) (A) (A)
                 (A) (A) (A) (A) (A) (A) (A) (A) (A) (A) (A) (A)
                 (A) (A) (A) (A) (A) (A) (A) (A) (A) (A) (A) (A)
                 (A) (A) (A) (A) (A) (A) (A) (A)
       Virtual   (A) (A) (A) (A) (A) (A) (A) (A) (A) (A) (A) (A)
                 (A) (A) (A) (A) (A) (A) (A) (A) (A) (A) (A) (A)
                 (A) (A) (A) (A) (A) (A) (A) (A) (A) (A) (A) (A)
                 (A) (A) (A) (A) (A) (A) (A) (A) (A) (A) (A) (A)
                 (A) (A) (A) (A) (A) (A) (A) (A) (A) (A) (A) (A)
                 (A) (A) (A) (A) (A) (A) (A) (A) (A) (A) (A) (A)
                 (A) (A) (A) (A) (A) (A) (A) (A) (A) (A) (A) (A)
                 (A) (A) (A) (A) (A) (A) (A) (A) (A) (A) (A) (A)
                 (A) (A) (A) (A) (A) (A) (A) (A) (A) (A) (A) (A)
                 (A) (A) (A) (A) (A) (A) (A) (A) (A) (A) (A) (A)
                 (A) (A) (A) (A) (A) (A) (A) (A) (A) (A) (A) (A)
                 (A) (A) (A) (A) (A) (A) (A) (A) (A) (A) (A) (A)
                 (A) (A) (A) (A) (A) (A) (A) (A) (A) (A) (A) (A)
                 (A) (A) (A) (A) (A) (A) (A) (A) (A) (A) (A) (A)
                 (A) (A) (A) (A) (A) (A) (A) (A) (A) (A) (A) (A)
                 (A) (A) (A) (A) (A) (A) (A) (A) (A) (A) (A) (A)
                 (A) (A) (A) (A) (A) (A) (A) (A) (A) (A) (A) (A)
                 (A) (A) (A) (A) (A) (A) (A) (A) (A) (A) (A) (A)
                 (A) (A) (A) (A) (A) (A) (A) (A) (A) (A) (A) (A)
                 (A) (A) (A) (A) (A) (A) (A) (A) (A) (A) (A) (A)
                 (A) (A) (A) (A) (A) (A) (A) (A) (A) (A) (A) (A)
                 (A) (A) (A) (A) (A) (A) (A) (A) (A) (A) (A) (A)
                 (A) (A) (A) (A) (A) (A) (A) (A) (A) (A) (A) (A)
                 (A) (A) (A) (A) (A) (A) (A) (A) (A) (A) (A) (A)
                 (A) (A) (A) (A) (A) (A) (A) (A) (A) (A) (A) (A)
                 (A) (A) (A) (A) (A) (A) (A) (A) (A) (A) (A) (A)
                 (A) (A) (A) (A) (A) (A) (A) (A) (A) (A) (A) (A)
                 (A) (A) (A) (A) (A) (A) (A) (A) (A) (A) (A) (A)
                 (A) (A) (A) (A) (A) (A) (A) (A) (A) (A) (A) (A)
                 (A) (A) (A) (A) (A) (A) (A) (A) (A)
 The electronic state is 1-A.
 Alpha  occ. eigenvalues --  -14.64833 -10.46384 -10.45988 -10.41554 -10.41467
 Alpha  occ. eigenvalues --  -10.40382 -10.39055 -10.36714 -10.36293 -10.35861
 Alpha  occ. eigenvalues --  -10.35791 -10.35708 -10.35568 -10.35436 -10.34693
 Alpha  occ. eigenvalues --  -10.34642 -10.33844 -10.33775 -10.33253 -10.32791
 Alpha  occ. eigenvalues --  -10.32397 -10.32193  -6.87601  -1.17866  -1.00735
 Alpha  occ. eigenvalues --   -0.99604  -0.97190  -0.95071  -0.91257  -0.89808
 Alpha  occ. eigenvalues --   -0.89743  -0.88498  -0.85629  -0.83663  -0.83276
 Alpha  occ. eigenvalues --   -0.81349  -0.79445  -0.76664  -0.75398  -0.74361
 Alpha  occ. eigenvalues --   -0.72074  -0.69591  -0.68712  -0.67550  -0.63883
 Alpha  occ. eigenvalues --   -0.63426  -0.63078  -0.61985  -0.61749  -0.60072
 Alpha  occ. eigenvalues --   -0.59691  -0.58111  -0.57036  -0.56954  -0.56810
 Alpha  occ. eigenvalues --   -0.56428  -0.55098  -0.54749  -0.54096  -0.53905
 Alpha  occ. eigenvalues --   -0.52704  -0.52568  -0.51899  -0.51211  -0.50716
 Alpha  occ. eigenvalues --   -0.50501  -0.48916  -0.48175  -0.47746  -0.46818
 Alpha  occ. eigenvalues --   -0.46558  -0.46259  -0.45537  -0.42395  -0.42124
 Alpha  occ. eigenvalues --   -0.40943  -0.40518  -0.37361  -0.36452  -0.34932
 Alpha virt. eigenvalues --   -0.20731  -0.17736  -0.16325  -0.16069  -0.12175
 Alpha virt. eigenvalues --   -0.10538  -0.10153  -0.04546  -0.04251  -0.03778
 Alpha virt. eigenvalues --   -0.03379  -0.02783  -0.00758  -0.00538   0.00054
 Alpha virt. eigenvalues --    0.00266   0.00696   0.00900   0.01588   0.02124
 Alpha virt. eigenvalues --    0.02641   0.02879   0.03259   0.03499   0.03794
 Alpha virt. eigenvalues --    0.05099   0.05499   0.06638   0.07133   0.07798
 Alpha virt. eigenvalues --    0.07882   0.08581   0.09145   0.09783   0.10775
 Alpha virt. eigenvalues --    0.11534   0.12927   0.13128   0.13697   0.14444
 Alpha virt. eigenvalues --    0.14948   0.15951   0.16416   0.18044   0.18763
 Alpha virt. eigenvalues --    0.19663   0.20690   0.21239   0.21686   0.22419
 Alpha virt. eigenvalues --    0.23353   0.24767   0.24924   0.25530   0.26367
 Alpha virt. eigenvalues --    0.27208   0.28508   0.28714   0.28982   0.29084
 Alpha virt. eigenvalues --    0.30058   0.31362   0.31772   0.32251   0.33206
 Alpha virt. eigenvalues --    0.33593   0.33644   0.34515   0.35081   0.35259
 Alpha virt. eigenvalues --    0.36058   0.36949   0.37127   0.37336   0.38304
 Alpha virt. eigenvalues --    0.39021   0.39653   0.40127   0.40425   0.41065
 Alpha virt. eigenvalues --    0.41870   0.42342   0.43687   0.44241   0.45587
 Alpha virt. eigenvalues --    0.46317   0.46514   0.46738   0.47480   0.48630
 Alpha virt. eigenvalues --    0.50255   0.50638   0.51104   0.51416   0.51894
 Alpha virt. eigenvalues --    0.52065   0.53016   0.53741   0.53908   0.54895
 Alpha virt. eigenvalues --    0.55033   0.55156   0.55309   0.55367   0.55955
 Alpha virt. eigenvalues --    0.56739   0.56862   0.57153   0.57307   0.58096
 Alpha virt. eigenvalues --    0.58450   0.58855   0.59225   0.59452   0.59872
 Alpha virt. eigenvalues --    0.60079   0.60554   0.60670   0.61158   0.61392
 Alpha virt. eigenvalues --    0.61933   0.62104   0.62586   0.63052   0.63557
 Alpha virt. eigenvalues --    0.63809   0.64359   0.64706   0.65453   0.66353
 Alpha virt. eigenvalues --    0.67302   0.67873   0.68647   0.69881   0.70482
 Alpha virt. eigenvalues --    0.70883   0.71305   0.71876   0.72933   0.73313
 Alpha virt. eigenvalues --    0.73712   0.74588   0.76104   0.77214   0.77519
 Alpha virt. eigenvalues --    0.78877   0.81316   0.81998   0.82840   0.85287
 Alpha virt. eigenvalues --    0.85478   0.87386   0.89436   0.90813   0.91173
 Alpha virt. eigenvalues --    0.93582   0.95782   0.98340   1.00232   1.02025
 Alpha virt. eigenvalues --    1.03611   1.04359   1.06314   1.07145   1.07381
 Alpha virt. eigenvalues --    1.07851   1.08863   1.10307   1.11089   1.11775
 Alpha virt. eigenvalues --    1.12806   1.12834   1.13852   1.14662   1.15808
 Alpha virt. eigenvalues --    1.17210   1.17295   1.18611   1.19347   1.19651
 Alpha virt. eigenvalues --    1.21668   1.22092   1.23015   1.25146   1.27385
 Alpha virt. eigenvalues --    1.28574   1.31213   1.32685   1.36199   1.36531
 Alpha virt. eigenvalues --    1.37848   1.38212   1.38841   1.39901   1.41719
 Alpha virt. eigenvalues --    1.42365   1.43621   1.44743   1.45227   1.46363
 Alpha virt. eigenvalues --    1.47264   1.48819   1.49775   1.50878   1.52018
 Alpha virt. eigenvalues --    1.54360   1.55050   1.55923   1.57547   1.58106
 Alpha virt. eigenvalues --    1.58892   1.59388   1.59908   1.61315   1.61664
 Alpha virt. eigenvalues --    1.62150   1.62818   1.63086   1.63739   1.63973
 Alpha virt. eigenvalues --    1.64753   1.65024   1.65511   1.66727   1.67134
 Alpha virt. eigenvalues --    1.67525   1.68154   1.68279   1.68857   1.69281
 Alpha virt. eigenvalues --    1.70062   1.71241   1.71639   1.71861   1.72698
 Alpha virt. eigenvalues --    1.73361   1.73827   1.74617   1.75719   1.76111
 Alpha virt. eigenvalues --    1.76730   1.77707   1.78401   1.80006   1.80077
 Alpha virt. eigenvalues --    1.81038   1.81934   1.84206   1.85430   1.86521
 Alpha virt. eigenvalues --    1.86989   1.88119   1.88207   1.89219   1.89407
 Alpha virt. eigenvalues --    1.90189   1.90989   1.91803   1.92615   1.92647
 Alpha virt. eigenvalues --    1.93171   1.93682   1.94814   1.95868   1.97490
 Alpha virt. eigenvalues --    1.98262   1.98592   1.99783   2.00009   2.01029
 Alpha virt. eigenvalues --    2.01602   2.02044   2.03309   2.04203   2.06496
 Alpha virt. eigenvalues --    2.07123   2.08684   2.09594   2.10333   2.12431
 Alpha virt. eigenvalues --    2.12841   2.13959   2.15184   2.17388   2.18549
[...]
    45  H   -0.002942   0.015923  -0.060060   0.391311   0.005604   0.000564
    46  H   -0.000001   0.000008   0.000231  -0.000120   0.376205   0.000683
              25         26         27         28         29         30
     1  C    0.400528   0.421996  -0.006810  -0.000117  -0.000001   0.000001
     2  C   -0.031982  -0.041389  -0.033354   0.008547   0.000285   0.000123
     3  C    0.001670  -0.010424   0.406528  -0.043724  -0.000692   0.000932
     4  C   -0.001328   0.004066  -0.023542   0.417146   0.005274  -0.004497
     5  C    0.000767  -0.000765   0.005446  -0.047408  -0.032346  -0.056823
     6  C    0.000004  -0.000008  -0.000194  -0.004625   0.419394   0.402833
     7  C   -0.000122   0.000426   0.000111   0.015504  -0.024478   0.022145
     8  C   -0.000310   0.000034   0.000194  -0.000731   0.001997  -0.001577
     9  C    0.000003  -0.000005  -0.000011   0.000040   0.005788   0.000119
    10  C   -0.000007  -0.000001   0.000009  -0.000036   0.001301  -0.000059
    11  C    0.000004  -0.000000  -0.000000   0.000002  -0.000690  -0.000022
    12  C    0.000000   0.000000   0.000000  -0.000001   0.000733  -0.000006
    13  C   -0.000002   0.000000  -0.000000   0.000003  -0.001278  -0.000028
    14  C   -0.000000  -0.000000   0.000000   0.000000  -0.000030  -0.000002
    15  C    0.000014   0.000005   0.000001   0.000058   0.000446   0.000542
    16  B   -0.000028  -0.000011  -0.000054   0.000029  -0.000340   0.000594
    17  C    0.000000   0.000000  -0.000001   0.000056   0.000292   0.000192
    18  C   -0.000000  -0.000000   0.000000   0.000015   0.000226  -0.000025
    19  C    0.000000   0.000000   0.000003  -0.000025   0.000001   0.000006
    20  C   -0.000000  -0.000000  -0.000000  -0.000000   0.000005  -0.000009
    21  C    0.000007  -0.000003  -0.000027   0.000004  -0.000006  -0.000005
    22  C    0.000053  -0.000003  -0.000097   0.000066   0.000111   0.000002
    23  N   -0.001498   0.002539   0.003325  -0.000459   0.000466  -0.000270
    24  H   -0.026617  -0.013555   0.000077   0.000007   0.000001   0.000000
    25  H    0.493994  -0.012890   0.000146   0.000003  -0.000001  -0.000000
    26  H   -0.012890   0.478972   0.000694   0.000004   0.000000   0.000000
    27  H    0.000146   0.000694   0.476743  -0.004988   0.000005  -0.000037
    28  H    0.000003   0.000004  -0.004988   0.490654   0.000049   0.003336
    29  H   -0.000001   0.000000   0.000005   0.000049   0.488329  -0.017623
    30  H   -0.000000   0.000000  -0.000037   0.003336  -0.017623   0.509646
    31  H    0.000001   0.000000   0.000013  -0.000032  -0.018081  -0.017854
    32  H   -0.000002   0.000001   0.000010  -0.000006   0.000096  -0.000046
    33  H    0.000204   0.000001  -0.000006   0.000004   0.000067   0.000003
    34  H    0.000000  -0.000000  -0.000000   0.000000  -0.000019   0.000000
    35  H   -0.000000  -0.000000  -0.000000   0.000000   0.000001   0.000000
    36  H    0.000000   0.000000   0.000000  -0.000000   0.000008  -0.000000
    37  H   -0.000000   0.000000   0.000000  -0.000000  -0.000000  -0.000000
    38  H    0.000000  -0.000000  -0.000000   0.000000   0.000023  -0.000000
    39  H   -0.000000   0.000000   0.000000  -0.000000  -0.000003   0.000000
    40  H    0.000000  -0.000000   0.000000  -0.000003  -0.000134   0.000110
    41  H    0.000000   0.000000  -0.000000   0.000000   0.000007  -0.000008
    42  H    0.000000   0.000000  -0.000000   0.000000   0.000000  -0.000000
    43  H   -0.000000   0.000000   0.000000  -0.000000   0.000000   0.000000
    44  H    0.000001  -0.000001   0.000002  -0.000002  -0.000000   0.000000
    45  H   -0.000016   0.000001  -0.000009   0.000017  -0.000004  -0.000002
    46  H    0.001085   0.000112  -0.000147   0.000067  -0.000014   0.000014
              31         32         33         34         35         36
     1  C   -0.000003  -0.000068  -0.000001   0.000001   0.000000  -0.000000
     2  C    0.000004  -0.000549   0.001444  -0.000024  -0.000001   0.000000
     3  C    0.000130   0.000839  -0.000671  -0.000008   0.000000  -0.000000
     4  C   -0.006648  -0.000902   0.000987  -0.000037  -0.000002   0.000000
     5  C   -0.014153   0.005922  -0.003905   0.000326   0.000003  -0.000001
     6  C    0.404207   0.000665  -0.000217  -0.000022  -0.000008  -0.000004
     7  C   -0.010272   0.011830  -0.013034  -0.002977  -0.000164   0.000210
     8  C   -0.008302  -0.022755  -0.001488   0.011582   0.027268  -0.004854
     9  C   -0.000565  -0.041665  -0.033383  -0.054050  -0.076249   0.016041
    10  C   -0.000079   0.424162   0.402884   0.421088  -0.011432  -0.000244
    11  C    0.000209  -0.006073  -0.000888  -0.003799   0.443331  -0.057008
    12  C   -0.000076   0.000555  -0.000303   0.001358  -0.054716   0.434269
    13  C    0.001191  -0.000638   0.000081   0.000107   0.016968  -0.063948
    14  C    0.000004  -0.000011  -0.000003   0.000002  -0.000215  -0.010704
    15  C   -0.002984   0.002314   0.000799   0.000147  -0.007284   0.022144
    16  B    0.001820   0.000177  -0.000014  -0.000011   0.000003  -0.000533
    17  C    0.006571   0.000001   0.000001  -0.000000  -0.000005   0.000000
    18  C    0.000226  -0.000000   0.000000  -0.000000   0.000000  -0.000005
    19  C    0.000093   0.000000  -0.000000   0.000000   0.000000   0.000000
    20  C   -0.000238  -0.000000   0.000000  -0.000000  -0.000000  -0.000000
    21  C   -0.000026   0.000001  -0.000001   0.000000   0.000000  -0.000001
    22  C    0.000381   0.000019   0.000001   0.000000  -0.000004   0.000020
    23  N    0.000013  -0.004321   0.006102   0.000173   0.000017  -0.000005
    24  H   -0.000001  -0.000001   0.000009  -0.000000   0.000000   0.000000
    25  H    0.000001  -0.000002   0.000204   0.000000  -0.000000   0.000000
    26  H    0.000000   0.000001   0.000001  -0.000000  -0.000000   0.000000
    27  H    0.000013   0.000010  -0.000006  -0.000000  -0.000000   0.000000
    28  H   -0.000032  -0.000006   0.000004   0.000000   0.000000  -0.000000
    29  H   -0.018081   0.000096   0.000067  -0.000019   0.000001   0.000008
    30  H   -0.017854  -0.000046   0.000003   0.000000   0.000000  -0.000000
    31  H    0.495372   0.000041  -0.000002  -0.000002  -0.000001   0.000001
    32  H    0.000041   0.541610  -0.037362  -0.016425  -0.000103   0.000019
    33  H   -0.000002  -0.037362   0.567629  -0.015193   0.000040   0.000014
    34  H   -0.000002  -0.016425  -0.015193   0.489249   0.004238  -0.000055
    35  H   -0.000001  -0.000103   0.000040   0.004238   0.535592  -0.008284
    36  H    0.000001   0.000019   0.000014  -0.000055  -0.008284   0.537674
    37  H   -0.000002   0.000000  -0.000000   0.000000  -0.000049   0.004640
    38  H    0.000023  -0.000001   0.000001  -0.000000   0.000014   0.000074
    39  H   -0.000006   0.000001  -0.000001   0.000000   0.000015   0.000008
    40  H   -0.000613   0.000001  -0.000000  -0.000000  -0.000002   0.000036
    41  H    0.000029  -0.000000   0.000000  -0.000000  -0.000000   0.000000
    42  H   -0.000007   0.000000  -0.000000   0.000000   0.000000  -0.000000
    43  H   -0.000001  -0.000000   0.000000   0.000000  -0.000000  -0.000000
    44  H    0.000002   0.000000  -0.000000  -0.000000  -0.000000   0.000000
    45  H    0.000053  -0.000002  -0.000003  -0.000001  -0.000001  -0.000000
    46  H    0.000008   0.000082  -0.000902   0.000045   0.000027  -0.000004
              37         38         39         40         41         42
     1  C   -0.000000   0.000000  -0.000000   0.000000  -0.000000  -0.000000
     2  C   -0.000000   0.000000  -0.000002  -0.000009   0.000000   0.000000
     3  C    0.000000  -0.000000   0.000001   0.000017  -0.000000  -0.000001
     4  C   -0.000000   0.000003  -0.000003  -0.000102   0.000008  -0.000000
     5  C   -0.000002  -0.000003   0.000019  -0.000851   0.000056   0.000001
     6  C    0.000003  -0.000094   0.000013  -0.000029   0.000006  -0.000002
     7  C    0.000033  -0.000140   0.000121   0.000748  -0.000032  -0.000001
     8  C   -0.000702  -0.000077   0.001766  -0.002879   0.000057   0.000003
     9  C    0.000127   0.000302  -0.000455   0.000082  -0.000001   0.000000
    10  C    0.000001   0.000001  -0.000008   0.000017   0.000000  -0.000000
    11  C    0.001766  -0.000646   0.000165  -0.000340   0.000001   0.000000
    12  C   -0.003276  -0.000692  -0.004091   0.000996  -0.000006  -0.000000
    13  C   -0.052999  -0.015822  -0.040992   0.004201  -0.000037  -0.000002
    14  C    0.404908   0.389734   0.431790  -0.004185   0.000124   0.000001
    15  C    0.014974  -0.014586  -0.015091  -0.001681  -0.000341   0.000003
    16  B   -0.000898  -0.000738   0.006752  -0.062543   0.008485  -0.001028
    17  C    0.000485   0.003071  -0.003330   0.405647  -0.038708   0.008232
    18  C    0.000005   0.001163  -0.000440  -0.046854   0.416128  -0.040070
    19  C    0.000001   0.000012   0.000118   0.014226  -0.056343   0.404753
    20  C   -0.000003   0.000008  -0.000121  -0.002431   0.011250  -0.035478
    21  C   -0.000002   0.000035   0.000033   0.000521  -0.001544   0.008001
    22  C    0.000153  -0.000041  -0.000595   0.006572   0.000003  -0.000445
    23  N   -0.000001   0.000004  -0.000010  -0.000028   0.000000   0.000000
    24  H    0.000000   0.000000  -0.000000  -0.000000   0.000000  -0.000000
    25  H   -0.000000   0.000000  -0.000000   0.000000   0.000000   0.000000
    26  H    0.000000  -0.000000   0.000000  -0.000000   0.000000   0.000000
    27  H    0.000000  -0.000000   0.000000   0.000000  -0.000000  -0.000000
    28  H   -0.000000   0.000000  -0.000000  -0.000003   0.000000   0.000000
    29  H   -0.000000   0.000023  -0.000003  -0.000134   0.000007   0.000000
    30  H   -0.000000  -0.000000   0.000000   0.000110  -0.000008  -0.000000
    31  H   -0.000002   0.000023  -0.000006  -0.000613   0.000029  -0.000007
    32  H    0.000000  -0.000001   0.000001   0.000001  -0.000000   0.000000
    33  H   -0.000000   0.000001  -0.000001  -0.000000   0.000000  -0.000000
    34  H    0.000000  -0.000000   0.000000  -0.000000  -0.000000   0.000000
    35  H   -0.000049   0.000014   0.000015  -0.000002  -0.000000   0.000000
    36  H    0.004640   0.000074   0.000008   0.000036   0.000000  -0.000000
    37  H    0.516455  -0.017542  -0.018067   0.000161  -0.000001  -0.000000
    38  H   -0.017542   0.543845  -0.029613  -0.000531   0.000015  -0.000000
    39  H   -0.018067  -0.029613   0.520007   0.000101  -0.000030   0.000001
    40  H    0.000161  -0.000531   0.000101   0.550354  -0.014005  -0.000276
    41  H   -0.000001   0.000015  -0.000030  -0.014005   0.537992  -0.007420
    42  H   -0.000000  -0.000000   0.000001  -0.000276  -0.007420   0.520418
    43  H   -0.000000   0.000000  -0.000000   0.000023  -0.000287  -0.009068
    44  H    0.000000  -0.000001   0.000011   0.000036   0.000010  -0.000314
    45  H    0.000001   0.000001  -0.000270  -0.000473   0.000042   0.000026
    46  H   -0.000001  -0.000001   0.000003  -0.000002   0.000000   0.000000
              43         44         45         46
     1  C    0.000001  -0.000012  -0.000112  -0.001320
     2  C   -0.000002  -0.000112   0.002109  -0.056813
     3  C    0.000007   0.000124  -0.000967   0.015843
     4  C    0.000001  -0.000093   0.000750  -0.007460
     5  C    0.000009   0.000060  -0.001118   0.024918
     6  C    0.000000  -0.000004  -0.000075   0.000185
     7  C   -0.000003   0.000285   0.001523  -0.035312
     8  C   -0.000007  -0.000175   0.010418  -0.018570
     9  C   -0.000000  -0.000005   0.001096   0.003627
    10  C    0.000000   0.000000  -0.000094  -0.000555
    11  C   -0.000000  -0.000000   0.000016   0.000321
    12  C    0.000000   0.000000  -0.000292  -0.000303
    13  C   -0.000000   0.000007   0.001966   0.000339
    14  C    0.000000   0.000001  -0.000164   0.000023
    15  C    0.000026  -0.000258  -0.018572   0.002901
    16  B   -0.001312   0.008540  -0.057895  -0.002008
    17  C   -0.000404   0.000106   0.006006   0.000040
    18  C    0.007441  -0.001644   0.000894   0.000001
    19  C   -0.032984   0.011461  -0.002942  -0.000001
    20  C    0.402406  -0.054325   0.015923   0.000008
    21  C   -0.041622   0.416805  -0.060060   0.000231
    22  C    0.009099  -0.045404   0.391311  -0.000120
    23  N   -0.000002  -0.000153   0.005604   0.376205
    24  H   -0.000000  -0.000017   0.000564   0.000683
    25  H   -0.000000   0.000001  -0.000016   0.001085
    26  H    0.000000  -0.000001   0.000001   0.000112
    27  H    0.000000   0.000002  -0.000009  -0.000147
    28  H   -0.000000  -0.000002   0.000017   0.000067
    29  H    0.000000  -0.000000  -0.000004  -0.000014
    30  H    0.000000   0.000000  -0.000002   0.000014
    31  H   -0.000001   0.000002   0.000053   0.000008
    32  H   -0.000000   0.000000  -0.000002   0.000082
    33  H    0.000000  -0.000000  -0.000003  -0.000902
    34  H    0.000000  -0.000000  -0.000001   0.000045
    35  H   -0.000000  -0.000000  -0.000001   0.000027
    36  H   -0.000000   0.000000  -0.000000  -0.000004
    37  H   -0.000000   0.000000   0.000001  -0.000001
    38  H    0.000000  -0.000001   0.000001  -0.000001
    39  H   -0.000000   0.000011  -0.000270   0.000003
    40  H    0.000023   0.000036  -0.000473  -0.000002
    41  H   -0.000287   0.000010   0.000042   0.000000
    42  H   -0.009068  -0.000314   0.000026   0.000000
    43  H    0.523471  -0.007475  -0.000381  -0.000000
    44  H   -0.007475   0.556404  -0.017317  -0.000026
    45  H   -0.000381  -0.017317   0.633059   0.001188
    46  H   -0.000000  -0.000026   0.001188   0.428092
 Mulliken charges:
               1
     1  C   -0.418447
     2  C    0.130135
     3  C   -0.105750
     4  C   -0.185648
     5  C    0.140462
     6  C   -0.367933
     7  C    0.080542
     8  C   -0.086170
     9  C    0.007518
    10  C   -0.395672
    11  C   -0.151922
    12  C   -0.212676
    13  C    0.061985
    14  C   -0.402485
    15  C    0.018974
    16  B   -0.083407
    17  C   -0.173796
    18  C   -0.066923
    19  C   -0.100864
    20  C   -0.094189
    21  C   -0.097012
    22  C   -0.066953
    23  N   -0.022071
    24  H    0.173252
    25  H    0.176318
    26  H    0.170207
    27  H    0.175970
    28  H    0.166547
    29  H    0.170832
    30  H    0.158292
    31  H    0.169555
    32  H    0.142584
    33  H    0.127107
    34  H    0.164305
    35  H    0.131003
    36  H    0.130492
    37  H    0.149832
    38  H    0.142199
    39  H    0.152202
    40  H    0.154123
    41  H    0.144552
    42  H    0.152673
    43  H    0.151065
    44  H    0.133484
    45  H    0.088200
    46  H    0.267509
 Sum of Mulliken charges =   1.00000
 Mulliken charges with hydrogens summed into heavy atoms:
               1
     1  C    0.101330
     2  C    0.130135
     3  C    0.070219
     4  C   -0.019101
     5  C    0.140462
     6  C    0.130746
     7  C    0.080542
     8  C   -0.086170
     9  C    0.007518
    10  C    0.038324
    11  C   -0.020919
    12  C   -0.082185
    13  C    0.061985
    14  C    0.041749
    15  C    0.018974
    16  B   -0.083407
    17  C   -0.019673
    18  C    0.077629
    19  C    0.051809
    20  C    0.056877
    21  C    0.036471
    22  C    0.021247
    23  N    0.245438
 Electronic spatial extent (au):  <R**2>=           6584.4455
 Charge=              1.0000 electrons
 Dipole moment (field-independent basis, Debye):
    X=              2.9633    Y=             -5.7698    Z=             -0.2984  Tot=              6.4931
 Quadrupole moment (field-independent basis, Debye-Ang):
   XX=            -96.4091   YY=            -93.5297   ZZ=           -116.5389
   XY=             -5.1034   XZ=             -7.6103   YZ=              3.4384
 Traceless Quadrupole moment (field-independent basis, Debye-Ang):
   XX=              5.7501   YY=              8.6296   ZZ=            -14.3797
   XY=             -5.1034   XZ=             -7.6103   YZ=              3.4384
 Octapole moment (field-independent basis, Debye-Ang**2):
  XXX=            -19.5479  YYY=            -43.3330  ZZZ=             10.0543  XYY=             41.1993
  XXY=            -41.5757  XXZ=             -0.5750  XZZ=             11.2443  YZZ=            -39.1961
  YYZ=            -21.4082  XYZ=              7.6519
 Hexadecapole moment (field-independent basis, Debye-Ang**3):
 XXXX=          -3581.2973 YYYY=          -3091.4899 ZZZZ=          -1106.5527 XXXY=            151.4291
 XXXZ=           -155.5692 YYYX=           -115.2065 YYYZ=            -21.7312 ZZZX=            -31.1527
 ZZZY=             22.4556 XXYY=          -1070.5132 XXZZ=           -817.7651 YYZZ=           -747.8261
 XXYZ=             82.6073 YYXZ=             -8.7582 ZZXY=            -48.6528
 N-N= 1.853266224291D+03 E-N=-5.756983804730D+03  KE= 8.877354245505D+02
 No NMR shielding tensors so no spin-rotation constants.
 Leave Link  601 at Fri Jan 24 17:37:33 2025, MaxMem=  3221225472 cpu:              13.6 elap:               0.7
 (Enter /software/gaussian/G16-C.01/avx2/g16/l9999.exe)
 Unable to Open any file for archive entry.
 1\1\GINC-NODE30\SP\RPBE1PBE\def2TZVP\C21H23B1N1(1+)\LAPLAZA\24-Jan-202
 5\0\\#p def2tzvp pbe1pbe integral=ultrafinegrid geom=allcheck guess=re
 ad em=gd3bj\\with_proton\\1,1\C,0,2.5764021023,1.9877422948,3.06994527
 86\C,0,2.2621118067,1.6609996732,1.651976931\C,0,2.5301436046,2.477853
 4238,0.5641352677\C,0,2.1963704372,2.0498345378,-0.7185681725\C,0,1.57
 95863196,0.8154489088,-0.9513458396\C,0,1.2290802935,0.3548727776,-2.3
 280554606\C,0,1.2986704567,0.0229299525,0.1685521146\C,0,0.6330705612,
 -1.2995132605,0.1322492883\C,0,1.4249490976,-2.4573777502,0.2708697801
 \C,0,2.9194450663,-2.3858852607,0.4175421747\C,0,0.7603948883,-3.68320
 43509,0.2489372002\C,0,-0.6221542546,-3.7463580939,0.1027996226\C,0,-1
 .4002109202,-2.5957209376,-0.0506614628\C,0,-2.891050318,-2.7070150641
 ,-0.2025323673\C,0,-0.7638235976,-1.3363987854,-0.0457872183\B,0,-1.58
 4792219,0.0133876909,-0.2222435547\C,0,-2.2522230804,0.2842362883,-1.5
 705585776\C,0,-2.9374950824,1.3998140854,-1.9914856368\C,0,-3.22613303
 52,2.5980820746,-1.2849487973\C,0,-2.9258194144,2.9562009446,0.0083715
 163\C,0,-2.2362789094,2.2322801101,1.0168307875\C,0,-1.6517829387,0.98
 87135167,0.9520593536\N,0,1.6679519963,0.4785825559,1.3872245639\H,0,1
 .6624386359,1.9959363212,3.6848630915\H,0,3.2681635941,1.2472434915,3.
 5021117578\H,0,3.0459662793,2.9754521322,3.1429252915\H,0,3.0099448384
 ,3.4436307295,0.7262175732\H,0,2.4293825199,2.6937237117,-1.5708782786
 \H,0,1.3243906569,-0.7352822704,-2.419956399\H,0,1.8674828431,0.838658
 8519,-3.0788574913\H,0,0.1816503238,0.6088453954,-2.5585359976\H,0,3.3
 732678363,-1.7014228709,-0.3163288458\H,0,3.2258887969,-2.0375610586,1
 .4181622225\H,0,3.373480159,-3.3751655304,0.2739883865\H,0,1.337156511
 5,-4.6062763103,0.3467299413\H,0,-1.1124064549,-4.7235157695,0.1043938
 262\H,0,-3.2405445592,-3.7221146528,0.0288917389\H,0,-3.2099481527,-2.
 4751325549,-1.2311115428\H,0,-3.4202818538,-2.0061693081,0.4607523344\
 H,0,-2.1803177538,-0.5031035097,-2.3323626263\H,0,-3.3281670745,1.3875
 984231,-3.0161331678\H,0,-3.7859693185,3.3441209032,-1.857614663\H,0,-
 3.2841777546,3.9437063709,0.3152643649\H,0,-2.1800860414,2.7614530388,
 1.9761443514\H,0,-1.2005548635,0.6665776862,1.9006652474\H,0,1.4440454
 917,-0.1363734418,2.1692792035\\Version=ES64L-G16RevC.01\State=1-A\HF=
 -892.7702142\RMSD=8.093e-09\Dipole=1.6940317,1.7249715,0.8249798\Quadr
 upole=1.1751773,3.6108373,-4.7860146,2.5556745,10.4408737,2.3677933\PG
 =C01 [X(C21H23B1N1)]\\@
 The archive entry for this job was punched.


 ONLY A FOOL KNOWS EVERYTHING.

               -- THE CHEMIST ANALYST, SEPTEMBER 1946
 Job cpu time:       0 days  2 hours 50 minutes 40.7 seconds.
 Elapsed time:       0 days  0 hours  7 minutes  8.0 seconds.
 File lengths (MBytes):  RWF=    375 Int=      0 D2E=      0 Chk=     51 Scr=      1
 Normal termination of Gaussian 16 at Fri Jan 24 17:37:34 2025.
