 Entering Gaussian System, Link 0=g16
 Input=with_hydride.com
 Output=with_hydride.log
 Initial command:
 /software/gaussian/G16-C.01/avx2/g16/l1.exe "/scratch/laplaza/9953612.slurm/Gau-330626.inp" -scrdir="/scratch/laplaza/9953612.slurm/"
 Entering Link 1 = /software/gaussian/G16-C.01/avx2/g16/l1.exe PID=    330627.
  
 Copyright (c) 1988-2019, Gaussian, Inc.  All Rights Reserved.
  
 This is part of the Gaussian(R) 16 program.  It is based on
 the Gaussian(R) 09 system (copyright 2009, Gaussian, Inc.),
 the Gaussian(R) 03 system (copyright 2003, Gaussian, Inc.),
 the Gaussian(R) 98 system (copyright 1998, Gaussian, Inc.),
 the Gaussian(R) 94 system (copyright 1995, Gaussian, Inc.),
 the Gaussian 92(TM) system (copyright 1992, Gaussian, Inc.),
 the Gaussian 90(TM) system (copyright 1990, Gaussian, Inc.),
 the Gaussian 88(TM) system (copyright 1988, Gaussian, Inc.),
 the Gaussian 86(TM) system (copyright 1986, Carnegie Mellon
 University), and the Gaussian 82(TM) system (copyright 1983,
 Carnegie Mellon University). Gaussian is a federally registered
 trademark of Gaussian, Inc.
  
 This software contains proprietary and confidential information,
 including trade secrets, belonging to Gaussian, Inc.
  
 This software is provided under written license and may be
 used, copied, transmitted, or stored only in accord with that
 written license.
  
 The following legend is applicable only to US Government
 contracts under FAR:
  
                    RESTRICTED RIGHTS LEGEND
  
 Use, reproduction and disclosure by the US Government is
 subject to restrictions as set forth in subparagraphs (a)
 and (c) of the Commercial Computer Software - Restricted
 Rights clause in FAR 52.227-19.
  
 Gaussian, Inc.
 340 Quinnipiac St., Bldg. 40, Wallingford CT 06492
  
  
 ---------------------------------------------------------------
 Warning -- This program may not be used in any manner that
 competes with the business of Gaussian, Inc. or will provide
 assistance to any competitor of Gaussian, Inc.  The licensee
 of this program is prohibited from giving any competitor of
 Gaussian, Inc. access to this program.  By using this program,
 the user acknowledges that Gaussian, Inc. is engaged in the
 business of creating and licensing software in the field of
 computational chemistry and represents and warrants to the
 licensee that it is not a competitor of Gaussian, Inc. and that
 it will not use this program in any manner prohibited above.
 ---------------------------------------------------------------
  

 Cite this work as:
 Gaussian 16, Revision C.01,
 M. J. Frisch, G. W. Trucks, H. B. Schlegel, G. E. Scuseria, 
 M. A. Robb, J. R. Cheeseman, G. Scalmani, V. Barone, 
 G. A. Petersson, H. Nakatsuji, X. Li, M. Caricato, A. V. Marenich, 
 J. Bloino, B. G. Janesko, R. Gomperts, B. Mennucci, H. P. Hratchian, 
 J. V. Ortiz, A. F. Izmaylov, J. L. Sonnenberg, D. Williams-Young, 
 F. Ding, F. Lipparini, F. Egidi, J. Goings, B. Peng, A. Petrone, 
 T. Henderson, D. Ranasinghe, V. G. Zakrzewski, J. Gao, N. Rega, 
 G. Zheng, W. Liang, M. Hada, M. Ehara, K. Toyota, R. Fukuda, 
 J. Hasegawa, M. Ishida, T. Nakajima, Y. Honda, O. Kitao, H. Nakai, 
 T. Vreven, K. Throssell, J. A. Montgomery, Jr., J. E. Peralta, 
 F. Ogliaro, M. J. Bearpark, J. J. Heyd, E. N. Brothers, K. N. Kudin, 
 V. N. Staroverov, T. A. Keith, R. Kobayashi, J. Normand, 
 K. Raghavachari, A. P. Rendell, J. C. Burant, S. S. Iyengar, 
 J. Tomasi, M. Cossi, J. M. Millam, M. Klene, C. Adamo, R. Cammi, 
 J. W. Ochterski, R. L. Martin, K. Morokuma, O. Farkas, 
 J. B. Foresman, and D. J. Fox, Gaussian, Inc., Wallingford CT, 2019.
 
 ******************************************
 Gaussian 16:  ES64L-G16RevC.01  3-Jul-2019
                24-Jan-2025 
 ******************************************
 %nprocshared=24
 Will use up to   24 processors via shared memory.
 %mem=24GB
 %chk=with_hydride.chk
 -------------------------------------------------------------------
 #p opt freq=noraman def2svp pbe1pbe em=gd3bj integral=ultrafinegrid
 -------------------------------------------------------------------
 1/18=20,19=15,26=4,38=1/1,3;
 2/9=110,12=2,17=6,18=5,40=1/2;
 3/5=43,7=101,11=2,25=1,30=1,71=1,74=-13,75=-5,124=41/1,2,3;
 4//1;
 5/5=2,38=5/2;
 6/7=2,8=2,9=2,10=2,28=1/1;
 7//1,2,3,16;
 1/18=20,19=15,26=4/3(2);
 2/9=110/2;
 99//99;
 2/9=110/2;
 3/5=43,7=101,11=2,25=1,30=1,71=1,74=-13,75=-5,124=41/1,2,3;
 4/5=5,16=3,69=1/1;
 5/5=2,38=5/2;
 7//1,2,3,16;
 1/18=20,19=15,26=4/3(-5);
 2/9=110/2;
 6/7=2,8=2,9=2,10=2,19=2,28=1/1;
 99/9=1/99;
 Leave Link    1 at Fri Jan 24 16:52:54 2025, MaxMem=  3221225472 cpu:               0.9 elap:               0.0
 (Enter /software/gaussian/G16-C.01/avx2/g16/l101.exe)
 ------------
 with_hydride
 ------------
 Symbolic Z-matrix:
 Charge = -1 Multiplicity = 1
 C                     2.32354   2.33204   2.97452 
 C                     2.1426    1.78138   1.58861 
 C                     2.50567   2.5445    0.46505 
 C                     2.27826   2.01086  -0.81041 
 C                     1.69748   0.72825  -0.97972 
 C                     1.43499   0.19509  -2.34003 
 C                     1.30868   0.0173    0.20928 
 C                     0.63521  -1.28262   0.09558 
 C                     1.39986  -2.46647   0.17329 
 C                     2.90534  -2.42293   0.35742 
 C                     0.76385  -3.69142   0.07692 
 C                    -0.621    -3.78179  -0.0935 
 C                    -1.39602  -2.65114  -0.14208 
 C                    -2.89096  -2.7846   -0.26703 
 C                    -0.77243  -1.36263  -0.07464 
 B                    -1.63085  -0.02443  -0.13889 
 C                    -2.4227    0.25314  -1.45131 
 C                    -3.01261   1.40999  -1.79386 
 C                    -2.95687   2.7216   -1.10407 
 C                    -2.63726   2.9901    0.18139 
 C                    -2.22208   2.07335   1.24198 
 C                    -1.77122   0.8383    1.16331 
 N                     1.54466   0.57647   1.42849 
 H                     1.56007   3.1312    3.17321 
 H                     2.19401   1.54704   3.70011 
 H                     3.34651   2.76218   3.06744 
 H                     2.93461   3.49837   0.58074 
 H                     2.55684   2.61862  -1.67582 
 H                     1.73783  -0.86546  -2.39282 
 H                     2.0218    0.75996  -3.10358 
 H                     0.36169   0.29899  -2.5901 
 H                     3.35896  -1.88383  -0.50989 
 H                     3.15458  -1.88306   1.30266 
 H                     3.34339  -3.44798   0.406 
 H                     1.34082  -4.63525   0.11792 
 H                    -1.06509  -4.74976  -0.15377 
 H                    -3.21892  -3.79899   0.04941 
 H                    -3.18572  -2.66874  -1.30695 
 H                    -3.43452  -2.04656   0.3551 
 H                    -2.48296  -0.52844  -2.16267 
 H                    -3.4898    1.42562  -2.75277 
 H                    -3.31303   3.56087  -1.66894 
 H                    -2.7411    4.01756   0.4741 
 H                    -2.21104   2.49553   2.24568 
 H                    -1.42436   0.35541   2.04845 
 H                    -1.25848   0.97406  -0.41156 
 
 ITRead=  0  0  0  0  0  0  0  0  0  0  0  0  0  0  0  0  0  0  0  0
 ITRead=  0  0  0  0  0  0  0  0  0  0  0  0  0  0  0  0  0  0  0  0
 ITRead=  0  0  0  0  0  0
 MicOpt= -1 -1 -1 -1 -1 -1 -1 -1 -1 -1 -1 -1 -1 -1 -1 -1 -1 -1 -1 -1
 MicOpt= -1 -1 -1 -1 -1 -1 -1 -1 -1 -1 -1 -1 -1 -1 -1 -1 -1 -1 -1 -1
 MicOpt= -1 -1 -1 -1 -1 -1
 NAtoms=     46 NQM=       46 NQMF=       0 NMMI=      0 NMMIF=      0
                NMic=       0 NMicF=      0.
                    Isotopes and Nuclear Properties:
 (Nuclear quadrupole moments (NQMom) in fm**2, nuclear magnetic moments (NMagM)
  in nuclear magnetons)

  Atom         1           2           3           4           5           6           7           8           9          10
 IAtWgt=          12          12          12          12          12          12          12          12          12          12
 AtmWgt=  12.0000000  12.0000000  12.0000000  12.0000000  12.0000000  12.0000000  12.0000000  12.0000000  12.0000000  12.0000000
 NucSpn=           0           0           0           0           0           0           0           0           0           0
 AtZEff=  -0.0000000  -0.0000000  -0.0000000  -0.0000000  -0.0000000  -0.0000000  -0.0000000  -0.0000000  -0.0000000  -0.0000000
 NQMom=    0.0000000   0.0000000   0.0000000   0.0000000   0.0000000   0.0000000   0.0000000   0.0000000   0.0000000   0.0000000
 NMagM=    0.0000000   0.0000000   0.0000000   0.0000000   0.0000000   0.0000000   0.0000000   0.0000000   0.0000000   0.0000000
 AtZNuc=   6.0000000   6.0000000   6.0000000   6.0000000   6.0000000   6.0000000   6.0000000   6.0000000   6.0000000   6.0000000

  Atom        11          12          13          14          15          16          17          18          19          20
 IAtWgt=          12          12          12          12          12          11          12          12          12          12
 AtmWgt=  12.0000000  12.0000000  12.0000000  12.0000000  12.0000000  11.0093053  12.0000000  12.0000000  12.0000000  12.0000000
 NucSpn=           0           0           0           0           0           3           0           0           0           0
 AtZEff=  -0.0000000  -0.0000000  -0.0000000  -0.0000000  -0.0000000  -0.0000000  -0.0000000  -0.0000000  -0.0000000  -0.0000000
 NQMom=    0.0000000   0.0000000   0.0000000   0.0000000   0.0000000   4.0590000   0.0000000   0.0000000   0.0000000   0.0000000
 NMagM=    0.0000000   0.0000000   0.0000000   0.0000000   0.0000000   2.6886370   0.0000000   0.0000000   0.0000000   0.0000000
 AtZNuc=   6.0000000   6.0000000   6.0000000   6.0000000   6.0000000   5.0000000   6.0000000   6.0000000   6.0000000   6.0000000

  Atom        21          22          23          24          25          26          27          28          29          30
 IAtWgt=          12          12          14           1           1           1           1           1           1           1
 AtmWgt=  12.0000000  12.0000000  14.0030740   1.0078250   1.0078250   1.0078250   1.0078250   1.0078250   1.0078250   1.0078250
 NucSpn=           0           0           2           1           1           1           1           1           1           1
 AtZEff=  -0.0000000  -0.0000000  -0.0000000  -0.0000000  -0.0000000  -0.0000000  -0.0000000  -0.0000000  -0.0000000  -0.0000000
 NQMom=    0.0000000   0.0000000   2.0440000   0.0000000   0.0000000   0.0000000   0.0000000   0.0000000   0.0000000   0.0000000
 NMagM=    0.0000000   0.0000000   0.4037610   2.7928460   2.7928460   2.7928460   2.7928460   2.7928460   2.7928460   2.7928460
 AtZNuc=   6.0000000   6.0000000   7.0000000   1.0000000   1.0000000   1.0000000   1.0000000   1.0000000   1.0000000   1.0000000

  Atom        31          32          33          34          35          36          37          38          39          40
 IAtWgt=           1           1           1           1           1           1           1           1           1           1
 AtmWgt=   1.0078250   1.0078250   1.0078250   1.0078250   1.0078250   1.0078250   1.0078250   1.0078250   1.0078250   1.0078250
 NucSpn=           1           1           1           1           1           1           1           1           1           1
 AtZEff=  -0.0000000  -0.0000000  -0.0000000  -0.0000000  -0.0000000  -0.0000000  -0.0000000  -0.0000000  -0.0000000  -0.0000000
 NQMom=    0.0000000   0.0000000   0.0000000   0.0000000   0.0000000   0.0000000   0.0000000   0.0000000   0.0000000   0.0000000
 NMagM=    2.7928460   2.7928460   2.7928460   2.7928460   2.7928460   2.7928460   2.7928460   2.7928460   2.7928460   2.7928460
 AtZNuc=   1.0000000   1.0000000   1.0000000   1.0000000   1.0000000   1.0000000   1.0000000   1.0000000   1.0000000   1.0000000

  Atom        41          42          43          44          45          46
 IAtWgt=           1           1           1           1           1           1
 AtmWgt=   1.0078250   1.0078250   1.0078250   1.0078250   1.0078250   1.0078250
 NucSpn=           1           1           1           1           1           1
 AtZEff=  -0.0000000  -0.0000000  -0.0000000  -0.0000000  -0.0000000  -0.0000000
 NQMom=    0.0000000   0.0000000   0.0000000   0.0000000   0.0000000   0.0000000
 NMagM=    2.7928460   2.7928460   2.7928460   2.7928460   2.7928460   2.7928460
 AtZNuc=   1.0000000   1.0000000   1.0000000   1.0000000   1.0000000   1.0000000
 Leave Link  101 at Fri Jan 24 16:52:54 2025, MaxMem=  3221225472 cpu:               8.8 elap:               0.4
 (Enter /software/gaussian/G16-C.01/avx2/g16/l103.exe)

 GradGradGradGradGradGradGradGradGradGradGradGradGradGradGradGradGradGrad
 Berny optimization.
 Initialization pass.
                           ----------------------------
                           !    Initial Parameters    !
                           ! (Angstroms and Degrees)  !
 --------------------------                            --------------------------
 ! Name  Definition              Value          Derivative Info.                !
 --------------------------------------------------------------------------------
 ! R1    R(1,2)                  1.5022         estimate D2E/DX2                !
 ! R2    R(1,24)                 1.123          estimate D2E/DX2                !
 ! R3    R(1,25)                 1.0768         estimate D2E/DX2                !
 ! R4    R(1,26)                 1.1136         estimate D2E/DX2                !
 ! R5    R(2,3)                  1.4059         estimate D2E/DX2                !
 ! R6    R(2,23)                 1.3546         estimate D2E/DX2                !
 ! R7    R(3,4)                  1.4012         estimate D2E/DX2                !
 ! R8    R(3,27)                 1.0523         estimate D2E/DX2                !
 ! R9    R(4,5)                  1.4181         estimate D2E/DX2                !
 ! R10   R(4,28)                 1.0936         estimate D2E/DX2                !
 ! R11   R(5,6)                  1.4845         estimate D2E/DX2                !
 ! R12   R(5,7)                  1.4389         estimate D2E/DX2                !
 ! R13   R(6,29)                 1.1042         estimate D2E/DX2                !
 ! R14   R(6,30)                 1.1164         estimate D2E/DX2                !
 ! R15   R(6,31)                 1.1069         estimate D2E/DX2                !
 ! R16   R(7,8)                  1.4684         estimate D2E/DX2                !
 ! R17   R(7,23)                 1.3619         estimate D2E/DX2                !
 ! R18   R(8,9)                  1.4115         estimate D2E/DX2                !
 ! R19   R(8,15)                 1.4202         estimate D2E/DX2                !
 ! R20   R(9,10)                 1.5173         estimate D2E/DX2                !
 ! R21   R(9,11)                 1.3836         estimate D2E/DX2                !
 ! R22   R(10,32)                1.1174         estimate D2E/DX2                !
 ! R23   R(10,33)                1.1167         estimate D2E/DX2                !
 ! R24   R(10,34)                1.1158         estimate D2E/DX2                !
 ! R25   R(11,12)                1.3982         estimate D2E/DX2                !
 ! R26   R(11,35)                1.107          estimate D2E/DX2                !
 ! R27   R(12,13)                1.3716         estimate D2E/DX2                !
 ! R28   R(12,36)                1.0667         estimate D2E/DX2                !
 ! R29   R(13,14)                1.5061         estimate D2E/DX2                !
 ! R30   R(13,15)                1.4331         estimate D2E/DX2                !
 ! R31   R(14,37)                1.1121         estimate D2E/DX2                !
 ! R32   R(14,38)                1.0871         estimate D2E/DX2                !
 ! R33   R(14,39)                1.1078         estimate D2E/DX2                !
 ! R34   R(15,16)                1.5912         estimate D2E/DX2                !
 ! R35   R(16,17)                1.5577         estimate D2E/DX2                !
 ! R36   R(16,22)                1.5684         estimate D2E/DX2                !
 ! R37   R(16,46)                1.1            estimate D2E/DX2                !
 ! R38   R(17,18)                1.343          estimate D2E/DX2                !
 ! R39   R(17,40)                1.0586         estimate D2E/DX2                !
 ! R40   R(18,19)                1.483          estimate D2E/DX2                !
 ! R41   R(18,41)                1.0712         estimate D2E/DX2                !
 ! R42   R(19,20)                1.3515         estimate D2E/DX2                !
 ! R43   R(19,42)                1.0725         estimate D2E/DX2                !
 ! R44   R(20,21)                1.4621         estimate D2E/DX2                !
 ! R45   R(20,43)                1.0734         estimate D2E/DX2                !
 ! R46   R(21,22)                1.3171         estimate D2E/DX2                !
 ! R47   R(21,44)                1.0889         estimate D2E/DX2                !
 ! R48   R(22,45)                1.0663         estimate D2E/DX2                !
 ! A1    A(2,1,24)             110.0122         estimate D2E/DX2                !
 ! A2    A(2,1,25)             109.8741         estimate D2E/DX2                !
 ! A3    A(2,1,26)             109.2208         estimate D2E/DX2                !
 ! A4    A(24,1,25)            108.5297         estimate D2E/DX2                !
 ! A5    A(24,1,26)            109.5656         estimate D2E/DX2                !
 ! A6    A(25,1,26)            109.6248         estimate D2E/DX2                !
 ! A7    A(1,2,3)              120.4788         estimate D2E/DX2                !
 ! A8    A(1,2,23)             119.2265         estimate D2E/DX2                !
 ! A9    A(3,2,23)             120.1549         estimate D2E/DX2                !
 ! A10   A(2,3,4)              118.6091         estimate D2E/DX2                !
 ! A11   A(2,3,27)             120.6273         estimate D2E/DX2                !
 ! A12   A(4,3,27)             120.7629         estimate D2E/DX2                !
 ! A13   A(3,4,5)              121.306          estimate D2E/DX2                !
 ! A14   A(3,4,28)             117.8628         estimate D2E/DX2                !
 ! A15   A(5,4,28)             120.8299         estimate D2E/DX2                !
 ! A16   A(4,5,6)              120.4416         estimate D2E/DX2                !
 ! A17   A(4,5,7)              117.3161         estimate D2E/DX2                !
 ! A18   A(6,5,7)              122.1405         estimate D2E/DX2                !
 ! A19   A(5,6,29)             109.8934         estimate D2E/DX2                !
 ! A20   A(5,6,30)             110.6138         estimate D2E/DX2                !
 ! A21   A(5,6,31)             110.1674         estimate D2E/DX2                !
 ! A22   A(29,6,30)            108.0051         estimate D2E/DX2                !
 ! A23   A(29,6,31)            110.1987         estimate D2E/DX2                !
 ! A24   A(30,6,31)            107.9171         estimate D2E/DX2                !
 ! A25   A(5,7,8)              119.8247         estimate D2E/DX2                !
 ! A26   A(5,7,23)             119.3449         estimate D2E/DX2                !
 ! A27   A(8,7,23)             120.8135         estimate D2E/DX2                !
 ! A28   A(7,8,9)              119.3255         estimate D2E/DX2                !
 ! A29   A(7,8,15)             120.9136         estimate D2E/DX2                !
 ! A30   A(9,8,15)             119.7565         estimate D2E/DX2                !
 ! A31   A(8,9,10)             121.3403         estimate D2E/DX2                !
 ! A32   A(8,9,11)             119.3217         estimate D2E/DX2                !
 ! A33   A(10,9,11)            119.3379         estimate D2E/DX2                !
 ! A34   A(9,10,32)            108.8105         estimate D2E/DX2                !
 ! A35   A(9,10,33)            109.758          estimate D2E/DX2                !
 ! A36   A(9,10,34)            111.6198         estimate D2E/DX2                !
 ! A37   A(32,10,33)           109.4601         estimate D2E/DX2                !
 ! A38   A(32,10,34)           108.5201         estimate D2E/DX2                !
 ! A39   A(33,10,34)           108.6415         estimate D2E/DX2                !
 ! A40   A(9,11,12)            121.3994         estimate D2E/DX2                !
 ! A41   A(9,11,35)            120.8433         estimate D2E/DX2                !
 ! A42   A(12,11,35)           117.7515         estimate D2E/DX2                !
 ! A43   A(11,12,13)           120.7082         estimate D2E/DX2                !
 ! A44   A(11,12,36)           118.5475         estimate D2E/DX2                !
 ! A45   A(13,12,36)           120.7162         estimate D2E/DX2                !
 ! A46   A(12,13,14)           119.3895         estimate D2E/DX2                !
 ! A47   A(12,13,15)           119.579          estimate D2E/DX2                !
 ! A48   A(14,13,15)           121.0314         estimate D2E/DX2                !
 ! A49   A(13,14,37)           110.4843         estimate D2E/DX2                !
 ! A50   A(13,14,38)           109.8196         estimate D2E/DX2                !
 ! A51   A(13,14,39)           112.4212         estimate D2E/DX2                !
 ! A52   A(37,14,38)           106.8261         estimate D2E/DX2                !
 ! A53   A(37,14,39)           107.65           estimate D2E/DX2                !
 ! A54   A(38,14,39)           109.4622         estimate D2E/DX2                !
 ! A55   A(8,15,13)            119.1835         estimate D2E/DX2                !
 ! A56   A(8,15,16)            119.4853         estimate D2E/DX2                !
 ! A57   A(13,15,16)           121.3006         estimate D2E/DX2                !
 ! A58   A(15,16,17)           117.2665         estimate D2E/DX2                !
 ! A59   A(15,16,22)           118.5151         estimate D2E/DX2                !
 ! A60   A(15,16,46)           126.2134         estimate D2E/DX2                !
 ! A61   A(17,16,22)           123.7814         estimate D2E/DX2                !
 ! A62   A(17,16,46)            78.5504         estimate D2E/DX2                !
 ! A63   A(22,16,46)            74.739          estimate D2E/DX2                !
 ! A64   A(16,17,18)           126.2762         estimate D2E/DX2                !
 ! A65   A(16,17,40)           117.6167         estimate D2E/DX2                !
 ! A66   A(18,17,40)           116.0783         estimate D2E/DX2                !
 ! A67   A(17,18,19)           128.8071         estimate D2E/DX2                !
 ! A68   A(17,18,41)           115.8857         estimate D2E/DX2                !
 ! A69   A(19,18,41)           114.8481         estimate D2E/DX2                !
 ! A70   A(18,19,20)           128.8289         estimate D2E/DX2                !
 ! A71   A(18,19,42)           115.7623         estimate D2E/DX2                !
 ! A72   A(20,19,42)           115.0865         estimate D2E/DX2                !
 ! A73   A(19,20,21)           129.2361         estimate D2E/DX2                !
 ! A74   A(19,20,43)           115.2559         estimate D2E/DX2                !
 ! A75   A(21,20,43)           115.4583         estimate D2E/DX2                !
 ! A76   A(20,21,22)           129.9281         estimate D2E/DX2                !
 ! A77   A(20,21,44)           115.3665         estimate D2E/DX2                !
 ! A78   A(22,21,44)           114.5272         estimate D2E/DX2                !
 ! A79   A(16,22,21)           126.5868         estimate D2E/DX2                !
 ! A80   A(16,22,45)           114.2685         estimate D2E/DX2                !
 ! A81   A(21,22,45)           119.1053         estimate D2E/DX2                !
 ! A82   A(2,23,7)             123.1956         estimate D2E/DX2                !
 ! D1    D(24,1,2,3)            72.5455         estimate D2E/DX2                !
 ! D2    D(24,1,2,23)         -103.163          estimate D2E/DX2                !
 ! D3    D(25,1,2,3)          -168.0288         estimate D2E/DX2                !
 ! D4    D(25,1,2,23)           16.2627         estimate D2E/DX2                !
 ! D5    D(26,1,2,3)           -47.7477         estimate D2E/DX2                !
 ! D6    D(26,1,2,23)          136.5437         estimate D2E/DX2                !
 ! D7    D(1,2,3,4)           -177.873          estimate D2E/DX2                !
 ! D8    D(1,2,3,27)             1.819          estimate D2E/DX2                !
 ! D9    D(23,2,3,4)            -2.2044         estimate D2E/DX2                !
 ! D10   D(23,2,3,27)          177.4876         estimate D2E/DX2                !
 ! D11   D(1,2,23,7)           178.2522         estimate D2E/DX2                !
 ! D12   D(3,2,23,7)             2.5295         estimate D2E/DX2                !
 ! D13   D(2,3,4,5)             -0.1289         estimate D2E/DX2                !
 ! D14   D(2,3,4,28)           179.4507         estimate D2E/DX2                !
 ! D15   D(27,3,4,5)          -179.8205         estimate D2E/DX2                !
 ! D16   D(27,3,4,28)           -0.2409         estimate D2E/DX2                !
 ! D17   D(3,4,5,6)            178.5202         estimate D2E/DX2                !
 ! D18   D(3,4,5,7)              2.1106         estimate D2E/DX2                !
 ! D19   D(28,4,5,6)            -1.0469         estimate D2E/DX2                !
 ! D20   D(28,4,5,7)          -177.4565         estimate D2E/DX2                !
 ! D21   D(4,5,6,29)           136.6655         estimate D2E/DX2                !
 ! D22   D(4,5,6,30)            17.501          estimate D2E/DX2                !
 ! D23   D(4,5,6,31)          -101.7283         estimate D2E/DX2                !
 ! D24   D(7,5,6,29)           -47.1022         estimate D2E/DX2                !
 ! D25   D(7,5,6,30)          -166.2667         estimate D2E/DX2                !
 ! D26   D(7,5,6,31)            74.504          estimate D2E/DX2                !
 ! D27   D(4,5,7,8)            176.6581         estimate D2E/DX2                !
 ! D28   D(4,5,7,23)            -1.8616         estimate D2E/DX2                !
 ! D29   D(6,5,7,8)              0.3139         estimate D2E/DX2                !
 ! D30   D(6,5,7,23)          -178.2058         estimate D2E/DX2                !
 ! D31   D(5,7,8,9)             95.3062         estimate D2E/DX2                !
 ! D32   D(5,7,8,15)           -85.4624         estimate D2E/DX2                !
 ! D33   D(23,7,8,9)           -86.1963         estimate D2E/DX2                !
 ! D34   D(23,7,8,15)           93.0351         estimate D2E/DX2                !
 ! D35   D(5,7,23,2)            -0.4301         estimate D2E/DX2                !
 ! D36   D(8,7,23,2)          -178.9347         estimate D2E/DX2                !
 ! D37   D(7,8,9,10)            -0.6457         estimate D2E/DX2                !
 ! D38   D(7,8,9,11)           179.484          estimate D2E/DX2                !
 ! D39   D(15,8,9,10)         -179.8861         estimate D2E/DX2                !
 ! D40   D(15,8,9,11)            0.2436         estimate D2E/DX2                !
 ! D41   D(7,8,15,13)         -178.181          estimate D2E/DX2                !
 ! D42   D(7,8,15,16)           -0.1673         estimate D2E/DX2                !
 ! D43   D(9,8,15,13)            1.047          estimate D2E/DX2                !
 ! D44   D(9,8,15,16)          179.0607         estimate D2E/DX2                !
 ! D45   D(8,9,10,32)          -60.7397         estimate D2E/DX2                !
 ! D46   D(8,9,10,33)           59.0168         estimate D2E/DX2                !
 ! D47   D(8,9,10,34)          179.5277         estimate D2E/DX2                !
 ! D48   D(11,9,10,32)         119.1306         estimate D2E/DX2                !
 ! D49   D(11,9,10,33)        -121.1129         estimate D2E/DX2                !
 ! D50   D(11,9,10,34)          -0.602          estimate D2E/DX2                !
 ! D51   D(8,9,11,12)           -0.1144         estimate D2E/DX2                !
 ! D52   D(8,9,11,35)          178.9887         estimate D2E/DX2                !
 ! D53   D(10,9,11,12)        -179.9874         estimate D2E/DX2                !
 ! D54   D(10,9,11,35)          -0.8843         estimate D2E/DX2                !
 ! D55   D(9,11,12,13)          -1.3857         estimate D2E/DX2                !
 ! D56   D(9,11,12,36)        -179.4691         estimate D2E/DX2                !
 ! D57   D(35,11,12,13)        179.4845         estimate D2E/DX2                !
 ! D58   D(35,11,12,36)          1.4011         estimate D2E/DX2                !
 ! D59   D(11,12,13,14)       -177.3811         estimate D2E/DX2                !
 ! D60   D(11,12,13,15)          2.6796         estimate D2E/DX2                !
 ! D61   D(36,12,13,14)          0.6606         estimate D2E/DX2                !
 ! D62   D(36,12,13,15)       -179.2787         estimate D2E/DX2                !
 ! D63   D(12,13,14,37)         19.9779         estimate D2E/DX2                !
 ! D64   D(12,13,14,38)        -97.6096         estimate D2E/DX2                !
 ! D65   D(12,13,14,39)        140.261          estimate D2E/DX2                !
 ! D66   D(15,13,14,37)       -160.0837         estimate D2E/DX2                !
 ! D67   D(15,13,14,38)         82.3288         estimate D2E/DX2                !
 ! D68   D(15,13,14,39)        -39.8006         estimate D2E/DX2                !
 ! D69   D(12,13,15,8)          -2.5091         estimate D2E/DX2                !
 ! D70   D(12,13,15,16)        179.5145         estimate D2E/DX2                !
 ! D71   D(14,13,15,8)         177.5526         estimate D2E/DX2                !
 ! D72   D(14,13,15,16)         -0.4238         estimate D2E/DX2                !
 ! D73   D(8,15,16,17)         118.5089         estimate D2E/DX2                !
 ! D74   D(8,15,16,22)         -68.7869         estimate D2E/DX2                !
 ! D75   D(8,15,16,46)          22.7346         estimate D2E/DX2                !
 ! D76   D(13,15,16,17)        -63.5207         estimate D2E/DX2                !
 ! D77   D(13,15,16,22)        109.1836         estimate D2E/DX2                !
 ! D78   D(13,15,16,46)       -159.295          estimate D2E/DX2                !
 ! D79   D(15,16,17,18)       -167.8934         estimate D2E/DX2                !
 ! D80   D(15,16,17,40)         10.0673         estimate D2E/DX2                !
 ! D81   D(22,16,17,18)         19.822          estimate D2E/DX2                !
 ! D82   D(22,16,17,40)       -162.2173         estimate D2E/DX2                !
 ! D83   D(46,16,17,18)        -42.8809         estimate D2E/DX2                !
 ! D84   D(46,16,17,40)        135.0798         estimate D2E/DX2                !
 ! D85   D(15,16,22,21)        166.5964         estimate D2E/DX2                !
 ! D86   D(15,16,22,45)        -11.0825         estimate D2E/DX2                !
 ! D87   D(17,16,22,21)        -21.209          estimate D2E/DX2                !
 ! D88   D(17,16,22,45)        161.1121         estimate D2E/DX2                !
 ! D89   D(46,16,22,21)         43.3184         estimate D2E/DX2                !
 ! D90   D(46,16,22,45)       -134.3605         estimate D2E/DX2                !
 ! D91   D(16,17,18,19)          6.4838         estimate D2E/DX2                !
 ! D92   D(16,17,18,41)        178.2328         estimate D2E/DX2                !
 ! D93   D(40,17,18,19)       -171.5045         estimate D2E/DX2                !
 ! D94   D(40,17,18,41)          0.2446         estimate D2E/DX2                !
 ! D95   D(17,18,19,20)        -20.5921         estimate D2E/DX2                !
 ! D96   D(17,18,19,42)        166.312          estimate D2E/DX2                !
 ! D97   D(41,18,19,20)        167.5878         estimate D2E/DX2                !
 ! D98   D(41,18,19,42)         -5.508          estimate D2E/DX2                !
 ! D99   D(18,19,20,21)          1.8784         estimate D2E/DX2                !
 ! D100  D(18,19,20,43)       -175.4111         estimate D2E/DX2                !
 ! D101  D(42,19,20,21)        175.013          estimate D2E/DX2                !
 ! D102  D(42,19,20,43)         -2.2765         estimate D2E/DX2                !
 ! D103  D(19,20,21,22)         16.9634         estimate D2E/DX2                !
 ! D104  D(19,20,21,44)       -168.2139         estimate D2E/DX2                !
 ! D105  D(43,20,21,22)       -165.7517         estimate D2E/DX2                !
 ! D106  D(43,20,21,44)          9.071          estimate D2E/DX2                !
 ! D107  D(20,21,22,16)         -3.614          estimate D2E/DX2                !
 ! D108  D(20,21,22,45)        173.9642         estimate D2E/DX2                !
 ! D109  D(44,21,22,16)       -178.472          estimate D2E/DX2                !
 ! D110  D(44,21,22,45)         -0.8938         estimate D2E/DX2                !
 --------------------------------------------------------------------------------
 Trust Radius=3.00D-01 FncErr=1.00D-07 GrdErr=1.00D-06 EigMax=2.50D+02 EigMin=1.00D-04
 Number of steps in this run=    250 maximum allowed number of steps=    276.
 GradGradGradGradGradGradGradGradGradGradGradGradGradGradGradGradGradGrad

 Leave Link  103 at Fri Jan 24 16:52:54 2025, MaxMem=  3221225472 cpu:               0.3 elap:               0.0
 (Enter /software/gaussian/G16-C.01/avx2/g16/l202.exe)
                          Input orientation:                          
 ---------------------------------------------------------------------
 Center     Atomic      Atomic             Coordinates (Angstroms)
 Number     Number       Type             X           Y           Z
 ---------------------------------------------------------------------
      1          6           0        2.323536    2.332035    2.974516
      2          6           0        2.142604    1.781378    1.588612
      3          6           0        2.505670    2.544503    0.465047
      4          6           0        2.278263    2.010861   -0.810407
      5          6           0        1.697477    0.728247   -0.979715
      6          6           0        1.434989    0.195094   -2.340030
      7          6           0        1.308677    0.017296    0.209281
      8          6           0        0.635210   -1.282624    0.095579
      9          6           0        1.399857   -2.466475    0.173285
     10          6           0        2.905338   -2.422925    0.357422
     11          6           0        0.763849   -3.691422    0.076918
     12          6           0       -0.621002   -3.781795   -0.093504
     13          6           0       -1.396020   -2.651138   -0.142081
     14          6           0       -2.890963   -2.784598   -0.267032
     15          6           0       -0.772430   -1.362632   -0.074637
     16          5           0       -1.630849   -0.024434   -0.138893
     17          6           0       -2.422698    0.253138   -1.451309
     18          6           0       -3.012611    1.409986   -1.793860
     19          6           0       -2.956870    2.721596   -1.104067
     20          6           0       -2.637263    2.990105    0.181393
     21          6           0       -2.222084    2.073354    1.241981
     22          6           0       -1.771222    0.838295    1.163308
     23          7           0        1.544664    0.576465    1.428494
     24          1           0        1.560069    3.131200    3.173211
     25          1           0        2.194007    1.547037    3.700114
     26          1           0        3.346513    2.762180    3.067441
     27          1           0        2.934606    3.498374    0.580738
     28          1           0        2.556840    2.618616   -1.675824
     29          1           0        1.737834   -0.865465   -2.392819
     30          1           0        2.021799    0.759962   -3.103584
     31          1           0        0.361690    0.298989   -2.590104
     32          1           0        3.358958   -1.883829   -0.509887
     33          1           0        3.154580   -1.883064    1.302660
     34          1           0        3.343390   -3.447982    0.406005
     35          1           0        1.340821   -4.635254    0.117921
     36          1           0       -1.065092   -4.749758   -0.153767
     37          1           0       -3.218920   -3.798986    0.049411
     38          1           0       -3.185717   -2.668739   -1.306948
     39          1           0       -3.434523   -2.046564    0.355097
     40          1           0       -2.482958   -0.528444   -2.162667
     41          1           0       -3.489805    1.425622   -2.752770
     42          1           0       -3.313032    3.560874   -1.668935
     43          1           0       -2.741102    4.017558    0.474102
     44          1           0       -2.211039    2.495534    2.245682
     45          1           0       -1.424360    0.355409    2.048451
     46          1           0       -1.258477    0.974061   -0.411556
 ---------------------------------------------------------------------
                    Distance matrix (angstroms):
                    1          2          3          4          5
     1  C    0.000000
     2  C    1.502228   0.000000
     3  C    2.525024   1.405907   0.000000
     4  C    3.798795   2.413785   1.401168   0.000000
     5  C    4.312775   2.811321   2.457499   1.418124   0.000000
     6  C    5.796588   4.295491   3.812419   2.519497   1.484455
     7  C    3.746262   2.389555   2.808022   2.440115   1.438864
     8  C    4.919805   3.726861   4.275749   3.790445   2.515605
     9  C    5.632564   4.538621   5.139830   4.667524   3.409433
    10  C    5.458693   4.446770   4.984643   4.627689   3.629980
    11  C    6.863726   5.842750   6.486243   5.966308   4.639139
    12  C    7.447279   6.435521   7.078849   6.517250   5.147931
    13  C    6.955594   5.929955   6.525832   5.973378   4.657424
    14  C    7.992408   7.044740   7.619640   7.071957   5.822524
    15  C    5.703763   4.598764   5.128636   4.607444   3.360265
    16  B    5.557286   4.525946   4.906626   4.458084   3.514437
    17  C    6.814432   5.693735   5.762950   5.059582   4.174203
    18  C    7.215404   6.176997   6.069697   5.414940   4.828304
    19  C    6.683509   5.842873   5.686196   5.291313   5.064765
    20  C    5.730979   5.127223   5.169989   5.109303   5.025350
    21  C    4.871474   4.388155   4.814277   4.946647   4.701936
    22  C    4.720040   4.048250   4.657308   4.654975   4.078790
    23  N    2.465533   1.354617   2.392684   2.758322   2.417822
    24  H    1.122954   2.161555   2.927888   4.200021   4.799986
    25  H    1.076797   2.125088   3.399666   4.535089   4.776794
    26  H    1.113616   2.144366   2.743511   4.091864   4.820340
    27  H    2.732018   2.142697   1.052255   2.139806   3.411614
    28  H    4.664999   3.395452   2.142764   1.093580   2.190107
    29  H    6.274977   4.798063   4.514959   3.327061   2.130354
    30  H    6.285361   4.803602   4.019185   2.624725   2.148723
    31  H    6.240762   4.778158   4.355793   3.125872   2.135870
    32  H    5.566568   4.395106   4.613971   4.053002   3.131166
    33  H    4.610076   3.812349   4.552586   4.516153   3.761826
    34  H    6.406711   5.494238   6.051044   5.693252   4.697887
    35  H    7.594010   6.631663   7.281915   6.775797   5.486269
    36  H    8.451080   7.482042   8.144908   7.570678   6.190519
    37  H    8.767239   7.890218   8.554738   8.044416   6.762093
    38  H    8.584320   7.521889   7.918949   7.211122   5.957531
    39  H    7.693421   6.875976   7.508387   7.103310   5.984874
    40  H    7.594430   6.387738   6.421393   5.562903   4.522685
    41  H    8.210866   7.120266   6.895793   6.114399   5.526115
    42  H    7.405578   6.598650   6.280460   5.865337   5.796895
    43  H    5.894372   5.485729   5.449642   5.556152   5.712629
    44  H    4.595683   4.460490   5.041865   5.452377   5.366841
    45  H    4.337208   3.868860   4.769113   4.962157   4.365165
    46  H    5.112768   4.027380   4.171753   3.707096   3.020081
                    6          7          8          9         10
     6  C    0.000000
     7  C    2.558623   0.000000
     8  C    2.958966   1.468427   0.000000
     9  C    3.660865   2.485704   1.411463   0.000000
    10  C    4.036359   2.919923   2.553885   1.517325   0.000000
    11  C    4.625697   3.750860   2.412303   1.383578   2.504744
    12  C    5.008953   4.271818   2.803511   2.425926   3.805908
    13  C    4.576748   3.815676   2.460734   2.819661   4.336273
    14  C    5.647101   5.070943   3.849846   4.325069   5.841050
    15  C    3.525793   2.513129   1.420150   2.449238   3.851867
    16  B    3.780550   2.960368   2.602507   3.904638   5.155200
    17  C    3.959159   4.091007   3.755293   4.964627   6.230633
    18  C    4.642780   4.962428   4.911896   6.194068   7.371658
    19  C    5.215289   5.218526   5.511439   6.894112   7.935208
    20  C    5.545530   4.940527   5.382625   6.787685   7.749342
    21  C    5.452783   4.214275   4.554224   5.905135   6.876731
    22  C    4.792377   3.327159   3.380719   4.685872   5.758058
    23  N    3.789359   1.361925   2.461703   3.294845   3.463376
    24  H    6.247575   4.306330   5.459764   6.352888   6.370771
    25  H    6.235959   3.912777   4.840403   5.401618   5.238338
    26  H    6.283677   4.456034   5.704697   6.285256   5.867211
    27  H    4.657402   3.859991   5.327339   6.172592   5.925582
    28  H    2.751941   3.446505   4.695764   5.533169   5.447263
    29  H    1.104213   2.781073   2.753529   3.043411   3.369358
    30  H    1.116440   3.469175   4.040969   4.640537   4.784348
    31  H    1.106934   2.968618   3.128770   4.044985   4.750460
    32  H    3.372388   2.887063   2.854267   2.155059   1.117417
    33  H    4.532651   2.866044   2.857411   2.166774   1.116712
    34  H    4.945169   4.023296   3.481290   2.189711   1.115791
    35  H    5.420576   4.653558   3.426151   2.170289   2.720197
    36  H    5.956653   5.337733   3.869654   3.375844   4.630311
    37  H    6.581867   5.923571   4.603100   4.808745   6.284500
    38  H    5.533509   5.450992   4.299754   4.822809   6.319138
    39  H    6.000073   5.174816   4.148937   4.855987   6.351022
    40  H    3.988141   4.505603   3.923191   4.928376   6.242887
    41  H    5.092951   5.812276   5.697669   6.900653   8.085942
    42  H    5.858544   6.119218   6.493196   7.869817   8.864541
    43  H    6.322207   5.698503   6.295609   7.699397   8.565963
    44  H    6.293989   4.762036   5.196013   6.477263   7.343983
    45  H    5.240261   3.311549   3.276994   4.410836   5.415257
    46  H    3.403022   2.809113   2.989292   4.387034   5.428462
                   11         12         13         14         15
    11  C    0.000000
    12  C    1.398222   0.000000
    13  C    2.407320   1.371641   0.000000
    14  C    3.781307   2.485405   1.506081   0.000000
    15  C    2.793991   2.423971   1.433060   2.558747   0.000000
    16  B    4.384969   3.890965   2.637181   3.036908   1.591158
    17  C    5.296141   4.622815   3.347082   3.293877   2.688739
    18  C    6.617086   5.963689   4.672736   4.465483   3.957467
    19  C    7.507681   6.983667   5.676965   5.569842   4.744725
    20  C    7.498085   7.071032   5.785234   5.797641   4.742306
    21  C    6.595894   6.215284   4.991877   5.130714   3.954868
    22  C    5.303317   4.924207   3.744457   4.052783   2.715543
    23  N    4.544370   5.099119   4.640232   5.817762   3.374675
    24  H    7.534532   7.950975   7.291437   8.163555   6.015280
    25  H    6.527967   7.121254   6.728702   7.769056   5.613793
    26  H    7.567190   8.279877   7.880144   8.988414   6.622117
    27  H    7.527230   8.130056   7.556010   8.609978   6.148253
    28  H    6.789956   7.318994   6.763710   7.801153   5.431222
    29  H    3.877407   4.399538   4.251528   5.443143   3.452908
    30  H    5.613631   6.055785   5.664591   6.689183   4.635477
    31  H    4.816443   4.883799   4.217299   5.048260   3.220991
    32  H    3.216571   4.428965   4.830514   6.319168   4.186820
    33  H    3.238549   4.450783   4.835822   6.310729   4.193949
    34  H    2.611818   4.009657   4.837083   6.305571   4.638931
    35  H    1.106976   2.149847   3.390371   4.634772   3.900380
    36  H    2.125633   1.066678   2.124584   2.684862   3.400667
    37  H    3.984316   2.601902   2.162681   1.112059   3.454927
    38  H    4.308136   3.047803   2.135472   1.087073   3.008065
    39  H    4.517662   3.335891   2.183618   1.107789   2.781936
    40  H    5.055880   4.281659   3.125705   2.974917   2.825180
    41  H    7.230826   6.512980   5.274429   4.925795   4.725556
    42  H    8.500868   7.977705   6.677971   6.512180   5.765184
    43  H    8.477666   8.102278   6.830844   6.844054   5.755278
    44  H    7.199439   6.885119   5.731832   5.886920   4.726407
    45  H    5.005202   4.727558   3.720021   4.167977   2.807878
    46  H    5.108341   4.808918   3.637802   4.100417   2.410372
                   16         17         18         19         20
    16  B    0.000000
    17  C    1.557725   0.000000
    18  C    2.589545   1.342995   0.000000
    19  C    3.198527   2.549353   1.482984   0.000000
    20  C    3.194197   3.194174   2.557203   1.351538   0.000000
    21  C    2.580133   3.256877   3.206450   2.542453   1.462070
    22  C    1.568354   2.757364   3.257717   3.177039   2.518823
    23  N    3.591889   4.913020   5.643322   5.592786   4.986926
    24  H    5.577636   6.747730   6.967336   6.234230   5.156402
    25  H    5.642430   7.037421   7.570429   7.140817   6.148577
    26  H    6.543694   7.745850   8.117828   7.558820   6.647315
    27  H    5.811319   6.584943   6.735686   6.176685   5.609237
    28  H    5.185038   5.517399   5.700307   5.544232   5.528650
    29  H    4.139510   4.409959   5.301241   6.047159   6.374438
    30  H    4.769330   4.768693   5.242441   5.712549   6.121394
    31  H    3.175413   3.008616   3.640635   4.369229   4.890503
    32  H    5.337899   6.235419   7.286611   7.839176   7.758078
    33  H    5.332253   6.576757   7.646363   8.021537   7.651828
    34  H    6.063056   7.098991   8.296867   8.946356   8.790200
    35  H    5.491487   6.365762   7.691047   8.607360   8.600888
    36  H    4.759095   5.343751   6.665222   7.765502   7.905032
    37  H    4.099350   4.393841   5.529340   6.627004   6.815240
    38  H    3.282425   3.023309   4.111331   5.399003   5.876944
    39  H    2.754318   3.094433   4.091914   5.009257   5.102335
    40  H    2.252948   1.058551   2.043052   3.450795   4.230675
    41  H    3.520047   2.051155   1.071199   2.163744   3.432746
    42  H    4.245610   3.432371   2.175357   1.072527   2.050892
    43  H    4.236287   4.240218   3.466526   2.053458   1.073369
    44  H    3.517536   4.329074   4.258971   3.439213   2.165076
    45  H    2.229662   3.640804   4.289292   4.229160   3.449443
    46  H    1.100000   1.719368   2.275473   2.533375   2.513379
                   21         22         23         24         25
    21  C    0.000000
    22  C    1.317132   0.000000
    23  N    4.057567   3.336762   0.000000
    24  H    4.376456   4.516040   3.093694   0.000000
    25  H    5.081465   4.760329   2.554195   1.785798   0.000000
    26  H    5.900513   5.789496   3.272638   1.827224   1.790284
    27  H    5.390674   5.436931   3.344874   2.957209   3.753226
    28  H    5.625745   5.473786   3.851191   4.976890   5.493690
    29  H    6.126122   5.278477   4.088877   6.854606   6.569025
    30  H    6.214457   5.709598   4.560819   6.725632   6.851237
    31  H    4.950669   4.350663   4.198279   6.532482   6.669471
    32  H    7.062321   6.043864   3.619673   6.477016   5.554463
    33  H    6.675736   5.629276   2.942270   5.584288   4.293726
    34  H    7.884067   6.716021   4.525160   7.356854   6.092820
    35  H    7.678751   6.382584   5.377841   8.348693   7.195884
    36  H    7.059859   5.784432   6.138651   8.948171   8.069929
    37  H    6.074561   4.984072   6.613484   8.979106   8.438446
    38  H    5.469284   4.516885   6.355352   8.731185   8.472595
    39  H    4.385236   3.426687   5.729290   7.726380   7.468832
    40  H    4.292905   3.665604   5.508085   7.629590   7.781633
    41  H    4.240838   4.316729   6.599236   7.970412   8.600009
    42  H    3.446203   4.220333   6.488295   6.883176   7.950452
    43  H    2.153821   3.394611   5.578510   5.154697   6.392646
    44  H    1.088932   2.027662   4.296036   3.935179   4.734918
    45  H    2.058663   1.066288   3.041104   4.228110   4.152174
    46  H    2.207072   1.661788   3.376606   5.044602   5.399424
                   26         27         28         29         30
    26  H    0.000000
    27  H    2.625898   0.000000
    28  H    4.810692   2.451276   0.000000
    29  H    6.749970   5.414554   3.650160   0.000000
    30  H    6.621578   4.680422   2.404031   1.796618   0.000000
    31  H    6.854509   5.187504   3.321936   1.813463   1.797810
    32  H    5.863688   5.507963   4.719620   2.685245   3.937626
    33  H    4.972885   5.434100   5.430818   4.086471   5.261537
    34  H    6.756432   6.960567   6.461910   4.132870   5.636543
    35  H    8.212460   8.301220   7.570657   4.546729   6.320616
    36  H    9.288039   9.196128   8.350329   5.287484   6.970462
    37  H    9.760242   9.560317   8.804627   6.256153   7.628271
    38  H    9.555113   8.891287   7.814675   5.354649   6.488614
    39  H    8.744328   8.447665   7.860341   5.974890   7.043472
    40  H    8.494996   7.286393   5.961591   4.240476   4.778927
    41  H    9.077251   7.528720   6.256593   5.718990   5.562728
    42  H    8.211011   6.640626   5.945022   6.754829   6.193846
    43  H    6.735016   5.700402   5.886205   7.219696   6.789476
    44  H    5.624302   5.500489   6.174627   6.957413   7.038733
    45  H    5.439864   5.570726   5.902735   5.587028   6.211533
    46  H    6.042080   4.993871   4.342762   4.035732   4.248889
                   31         32         33         34         35
    31  H    0.000000
    32  H    4.251543   0.000000
    33  H    5.264523   1.824034   0.000000
    34  H    5.648628   1.812643   1.813452   0.000000
    35  H    5.713042   3.469490   3.502553   2.345824   0.000000
    36  H    5.784574   5.283237   5.305163   4.630625   2.423911
    37  H    6.048240   6.873800   6.772214   6.581358   4.636299
    38  H    4.799791   6.639591   6.901211   6.794900   5.136826
    39  H    5.346686   6.850260   6.658895   6.921464   5.437047
    40  H    2.993220   6.220670   6.754652   7.004863   6.057083
    41  H    4.016189   7.930230   8.458237   8.967855   8.264988
    42  H    4.999201   8.689282   8.960851   9.886222   9.593107
    43  H    5.731005   8.544316   8.382298   9.631198   9.573929
    44  H    5.901573   7.602424   6.989369   8.340352   8.245678
    45  H    4.970849   5.868510   5.151083   6.316237   6.023279
    46  H    2.797629   5.431198   5.529627   6.434287   6.204926
                   36         37         38         39         40
    36  H    0.000000
    37  H    2.363095   0.000000
    38  H    3.187086   1.765863   0.000000
    39  H    3.630482   1.791902   1.792037   0.000000
    40  H    4.885234   4.016389   2.409769   3.090194   0.000000
    41  H    7.125263   5.934824   4.352776   4.660254   2.276035
    42  H    8.741600   7.558380   6.241419   5.962786   4.201822
    43  H    8.948132   7.842642   6.933713   6.104798   5.261684
    44  H    7.717824   6.742434   6.343571   5.069702   5.352749
    45  H    5.571496   4.947282   4.848355   3.560572   4.431178
    46  H    5.732884   5.180522   4.217342   3.800935   2.612137
                   41         42         43         44         45
    41  H    0.000000
    42  H    2.401092   0.000000
    43  H    4.206113   2.264569   0.000000
    44  H    5.269200   4.203994   2.394999   0.000000
    45  H    5.335086   5.259377   4.198062   2.288646   0.000000
    46  H    3.265580   3.534656   3.499349   3.206738   2.542023
                   46
    46  H    0.000000
 Stoichiometry    C21H23BN(1-)
 Framework group  C1[X(C21H23BN)]
 Deg. of freedom   132
 Full point group                 C1      NOp   1
 Largest Abelian subgroup         C1      NOp   1
 Largest concise Abelian subgroup C1      NOp   1
                         Standard orientation:                         
 ---------------------------------------------------------------------
 Center     Atomic      Atomic             Coordinates (Angstroms)
 Number     Number       Type             X           Y           Z
 ---------------------------------------------------------------------
      1          6           0       -2.789751   -2.835803   -1.944891
      2          6           0       -2.053663   -2.355487   -0.726629
      3          6           0       -2.676648   -2.367039    0.533660
      4          6           0       -1.969995   -1.868249    1.635987
      5          6           0       -0.652492   -1.361830    1.498880
      6          6           0        0.066389   -0.807889    2.673600
      7          6           0       -0.088709   -1.337901    0.175283
      8          6           0        1.242574   -0.757258   -0.041083
      9          6           0        2.371835   -1.603874   -0.056465
     10          6           0        2.239695   -3.099795    0.160414
     11          6           0        3.624974   -1.058084   -0.271047
     12          6           0        3.796489    0.314446   -0.475421
     13          6           0        2.716506    1.159772   -0.496859
     14          6           0        2.929420    2.623928   -0.778273
     15          6           0        1.404778    0.637997   -0.250326
     16          5           0        0.124920    1.583372   -0.254028
     17          6           0        0.057354    2.697283    0.832777
     18          6           0       -1.017706    3.439552    1.144094
     19          6           0       -2.410083    3.311715    0.649943
     20          6           0       -2.859454    2.701470   -0.469129
     21          6           0       -2.109463    1.966075   -1.486163
     22          6           0       -0.895357    1.457635   -1.438494
     23          7           0       -0.813584   -1.828963   -0.867911
     24          1           0       -3.574598   -2.088517   -2.239179
     25          1           0       -2.102596   -2.951623   -2.765802
     26          1           0       -3.271963   -3.814064   -1.719908
     27          1           0       -3.654988   -2.738212    0.644658
     28          1           0       -2.469569   -1.874611    2.608768
     29          1           0        1.110628   -1.166811    2.678619
     30          1           0       -0.417410   -1.140496    3.623205
     31          1           0        0.042645    0.298509    2.648662
     32          1           0        1.800842   -3.279800    1.172159
     33          1           0        1.569546   -3.536479   -0.618851
     34          1           0        3.229580   -3.611936    0.107233
     35          1           0        4.529452   -1.696296   -0.271641
     36          1           0        4.782118    0.685302   -0.645133
     37          1           0        3.906294    2.784842   -1.284731
     38          1           0        2.964657    3.177619    0.156560
     39          1           0        2.139751    3.048299   -1.429065
     40          1           0        0.927879    2.874784    1.408285
     41          1           0       -0.886071    4.141497    1.942475
     42          1           0       -3.151341    3.860148    1.197732
     43          1           0       -3.911140    2.805727   -0.656769
     44          1           0       -2.660553    1.735794   -2.396682
     45          1           0       -0.548927    0.864787   -2.254267
     46          1           0       -0.843905    1.367426    0.220046
 ---------------------------------------------------------------------
 Rotational constants (GHZ):           0.2910505           0.2829366           0.1835677
 Leave Link  202 at Fri Jan 24 16:52:54 2025, MaxMem=  3221225472 cpu:               0.3 elap:               0.0
 (Enter /software/gaussian/G16-C.01/avx2/g16/l301.exe)
 Standard basis: def2SVP (5D, 7F)
 Ernie: Thresh=  0.10000D-02 Tol=  0.10000D-05 Strict=F.
 There are   460 symmetry adapted cartesian basis functions of A   symmetry.
 There are   437 symmetry adapted basis functions of A   symmetry.
   437 basis functions,   736 primitive gaussians,   460 cartesian basis functions
    81 alpha electrons       81 beta electrons
       nuclear repulsion energy      1851.1773140007 Hartrees.
 IExCor= 1009 DFT=T Ex+Corr=PBE1PBE ExCW=0 ScaHFX=  0.250000
 ScaDFX=  0.750000  0.750000  1.000000  1.000000 ScalE2=  1.000000  1.000000
 IRadAn=      5 IRanWt=     -1 IRanGd=            0 ICorTp=0 IEmpDi=141
 NAtoms=   46 NActive=   46 NUniq=   46 SFac= 1.00D+00 NAtFMM=   60 NAOKFM=F Big=F
 Integral buffers will be    131072 words long.
 Raffenetti 2 integral format.
 Two-electron integral symmetry is turned on.
 R6Disp:  Grimme-D3(BJ) Dispersion energy=       -0.0592762026 Hartrees.
 Nuclear repulsion after empirical dispersion term =     1851.1180377981 Hartrees.
 Leave Link  301 at Fri Jan 24 16:52:54 2025, MaxMem=  3221225472 cpu:               2.0 elap:               0.1
 (Enter /software/gaussian/G16-C.01/avx2/g16/l302.exe)
 NPDir=0 NMtPBC=     1 NCelOv=     1 NCel=       1 NClECP=     1 NCelD=      1
         NCelK=      1 NCelE2=     1 NClLst=     1 CellRange=     0.0.
 One-electron integrals computed using PRISM.
 One-electron integral symmetry used in STVInt
   1 Symmetry operations used in ECPInt.
 ECPInt:  NShTT=   21528 NPrTT=   77004 LenC2=   19996 LenP2D=   49684.
 LDataN:  DoStor=T MaxTD1= 4 Len=   56
 NBasis=   437 RedAO= T EigKep=  2.13D-04  NBF=   437
 NBsUse=   437 1.00D-06 EigRej= -1.00D+00 NBFU=   437
 Precomputing XC quadrature grid using
 IXCGrd= 4 IRadAn=           5 IRanWt=          -1 IRanGd=           0 AccXCQ= 0.00D+00.
 Generated NRdTot=       0 NPtTot=           0 NUsed=           0 NTot=          32
 NSgBfM=   458   458   458   458   458 MxSgAt=    46 MxSgA2=    46.
 Leave Link  302 at Fri Jan 24 16:52:55 2025, MaxMem=  3221225472 cpu:              11.8 elap:               0.5
 (Enter /software/gaussian/G16-C.01/avx2/g16/l303.exe)
 DipDrv:  MaxL=1.
 Leave Link  303 at Fri Jan 24 16:52:55 2025, MaxMem=  3221225472 cpu:               1.4 elap:               0.1
 (Enter /software/gaussian/G16-C.01/avx2/g16/l401.exe)
 ExpMin= 8.36D-02 ExpMax= 1.71D+03 ExpMxC= 2.58D+02 IAcc=3 IRadAn=         5 AccDes= 0.00D+00
 Harris functional with IExCor= 1009 and IRadAn=       5 diagonalized for initial guess.
 HarFok:  IExCor= 1009 AccDes= 0.00D+00 IRadAn=         5 IDoV= 1 UseB2=F ITyADJ=14
 ICtDFT=  3500011 ScaDFX=  1.000000  1.000000  1.000000  1.000000
 FoFCou: FMM=F IPFlag=           0 FMFlag=      100000 FMFlg1=           0
         NFxFlg=           0 DoJE=T BraDBF=F KetDBF=T FulRan=T
         wScrn=  0.000000 ICntrl=       500 IOpCl=  0 I1Cent=   200000004 NGrid=           0
         NMat0=    1 NMatS0=      1 NMatT0=    0 NMatD0=    1 NMtDS0=    0 NMtDT0=    0
 Petite list used in FoFCou.
 Harris En= -892.479873509894    
 JPrj=0 DoOrth=F DoCkMO=F.
 Leave Link  401 at Fri Jan 24 16:52:56 2025, MaxMem=  3221225472 cpu:              32.3 elap:               1.4
 (Enter /software/gaussian/G16-C.01/avx2/g16/l502.exe)
 Integral symmetry usage will be decided dynamically.
 Closed shell SCF:
 Using DIIS extrapolation, IDIIS=  1040.
 NGot=  3221225472 LenX=  3220785178 LenY=  3220573118
 Requested convergence on RMS density matrix=1.00D-08 within 128 cycles.
 Requested convergence on MAX density matrix=1.00D-06.
 Requested convergence on             energy=1.00D-06.
 No special actions if energy rises.
 Fock matrices will be formed incrementally for  20 cycles.
 Integral accuracy reduced to 1.0D-05 until final iterations.

 Cycle   1  Pass 0  IDiag  1:
 FoFJK:  IHMeth= 1 ICntrl=       0 DoSepK=F KAlg= 0 I1Cent=           0 FoldK=F
 IRaf= 860000000 NMat=       1 IRICut=       1 DoRegI=T DoRafI=F ISym2E= 0 IDoP0=0 IntGTp=1.
 FoFCou: FMM=F IPFlag=           0 FMFlag=      100000 FMFlg1=           0
         NFxFlg=           0 DoJE=F BraDBF=F KetDBF=F FulRan=T
         wScrn=  0.000000 ICntrl=         0 IOpCl=  0 I1Cent=           0 NGrid=           0
         NMat0=    1 NMatS0=      1 NMatT0=    0 NMatD0=    1 NMtDS0=    0 NMtDT0=    0
 Symmetry not used in FoFCou.
 E= -891.305633836528    
 DIIS: error= 2.17D-02 at cycle   1 NSaved=   1.
 NSaved= 1 IEnMin= 1 EnMin= -891.305633836528     IErMin= 1 ErrMin= 2.17D-02
 ErrMax= 2.17D-02  0.00D+00 EMaxC= 1.00D-01 BMatC= 5.24D-01 BMatP= 5.24D-01
 IDIUse=3 WtCom= 7.83D-01 WtEn= 2.17D-01
 Coeff-Com:  0.100D+01
 Coeff-En:   0.100D+01
 Coeff:      0.100D+01
 Gap=     0.078 Goal=   None    Shift=    0.000
 GapD=    0.078 DampG=0.500 DampE=0.500 DampFc=0.2500 IDamp=-1.
 Damping current iteration by 2.50D-01
 RMSDP=7.76D-03 MaxDP=3.08D-01              OVMax= 8.45D-01

 Cycle   2  Pass 0  IDiag  1:
 RMSU=  1.91D-03    CP:  9.80D-01
 E= -891.507607307457     Delta-E=       -0.201973470929 Rises=F Damp=T
 DIIS: error= 1.27D-02 at cycle   2 NSaved=   2.
 NSaved= 2 IEnMin= 2 EnMin= -891.507607307457     IErMin= 2 ErrMin= 1.27D-02
 ErrMax= 1.27D-02  0.00D+00 EMaxC= 1.00D-01 BMatC= 1.39D-01 BMatP= 5.24D-01
 IDIUse=3 WtCom= 8.73D-01 WtEn= 1.27D-01
 Coeff-Com: -0.741D+00 0.174D+01
 Coeff-En:   0.000D+00 0.100D+01
 Coeff:     -0.646D+00 0.165D+01
 Gap=     0.078 Goal=   None    Shift=    0.000
 RMSDP=3.11D-03 MaxDP=7.71D-02 DE=-2.02D-01 OVMax= 7.30D-01

 Cycle   3  Pass 0  IDiag  1:
 RMSU=  2.97D-03    CP:  9.35D-01  7.10D-01
 E= -891.793075291690     Delta-E=       -0.285467984233 Rises=F Damp=F
 DIIS: error= 1.07D-02 at cycle   3 NSaved=   3.
 NSaved= 3 IEnMin= 3 EnMin= -891.793075291690     IErMin= 3 ErrMin= 1.07D-02
 ErrMax= 1.07D-02  0.00D+00 EMaxC= 1.00D-01 BMatC= 1.32D-01 BMatP= 1.39D-01
 IDIUse=3 WtCom= 8.93D-01 WtEn= 1.07D-01
 Coeff-Com: -0.546D+00 0.116D+01 0.387D+00
 Coeff-En:   0.000D+00 0.000D+00 0.100D+01
 Coeff:     -0.488D+00 0.104D+01 0.452D+00
 Gap=     0.216 Goal=   None    Shift=    0.000
 RMSDP=1.83D-03 MaxDP=6.49D-02 DE=-2.85D-01 OVMax= 1.11D-01

 Cycle   4  Pass 0  IDiag  1:
 RMSU=  1.38D-03    CP:  9.40D-01  8.83D-01  6.12D-01
 E= -891.945508358955     Delta-E=       -0.152433067265 Rises=F Damp=F
 DIIS: error= 2.41D-03 at cycle   4 NSaved=   4.
 NSaved= 4 IEnMin= 4 EnMin= -891.945508358955     IErMin= 4 ErrMin= 2.41D-03
 ErrMax= 2.41D-03  0.00D+00 EMaxC= 1.00D-01 BMatC= 8.61D-03 BMatP= 1.32D-01
 IDIUse=3 WtCom= 9.76D-01 WtEn= 2.41D-02
 Coeff-Com: -0.276D+00 0.543D+00 0.209D+00 0.524D+00
 Coeff-En:   0.000D+00 0.000D+00 0.000D+00 0.100D+01
 Coeff:     -0.269D+00 0.529D+00 0.204D+00 0.536D+00
 Gap=     0.099 Goal=   None    Shift=    0.000
 RMSDP=5.71D-04 MaxDP=3.60D-02 DE=-1.52D-01 OVMax= 4.25D-02

 Cycle   5  Pass 0  IDiag  1:
 RMSU=  5.58D-04    CP:  9.38D-01  8.52D-01  6.30D-01  9.38D-01
 E= -891.950196185614     Delta-E=       -0.004687826658 Rises=F Damp=F
 DIIS: error= 2.58D-03 at cycle   5 NSaved=   5.
 NSaved= 5 IEnMin= 5 EnMin= -891.950196185614     IErMin= 4 ErrMin= 2.41D-03
 ErrMax= 2.58D-03  0.00D+00 EMaxC= 1.00D-01 BMatC= 4.42D-03 BMatP= 8.61D-03
 IDIUse=3 WtCom= 9.74D-01 WtEn= 2.58D-02
 Coeff-Com: -0.106D+00 0.160D+00-0.554D-02 0.334D+00 0.617D+00
 Coeff-En:   0.000D+00 0.000D+00 0.000D+00 0.344D+00 0.656D+00
 Coeff:     -0.103D+00 0.156D+00-0.540D-02 0.334D+00 0.618D+00
 Gap=     0.088 Goal=   None    Shift=    0.000
 RMSDP=2.77D-04 MaxDP=8.07D-03 DE=-4.69D-03 OVMax= 2.24D-02

 Cycle   6  Pass 0  IDiag  1:
 RMSU=  1.53D-04    CP:  9.38D-01  9.06D-01  5.99D-01  1.04D+00  7.97D-01
 E= -891.955272151924     Delta-E=       -0.005075966310 Rises=F Damp=F
 DIIS: error= 3.90D-04 at cycle   6 NSaved=   6.
 NSaved= 6 IEnMin= 6 EnMin= -891.955272151924     IErMin= 6 ErrMin= 3.90D-04
 ErrMax= 3.90D-04  0.00D+00 EMaxC= 1.00D-01 BMatC= 2.67D-04 BMatP= 4.42D-03
 IDIUse=3 WtCom= 9.96D-01 WtEn= 3.90D-03
 Coeff-Com: -0.385D-01 0.507D-01-0.294D-01 0.912D-01 0.308D+00 0.618D+00
 Coeff-En:   0.000D+00 0.000D+00 0.000D+00 0.000D+00 0.000D+00 0.100D+01
 Coeff:     -0.384D-01 0.505D-01-0.292D-01 0.909D-01 0.307D+00 0.620D+00
 Gap=     0.086 Goal=   None    Shift=    0.000
 RMSDP=9.27D-05 MaxDP=4.84D-03 DE=-5.08D-03 OVMax= 6.43D-03

 Cycle   7  Pass 0  IDiag  1:
 RMSU=  6.07D-05    CP:  9.38D-01  9.03D-01  5.93D-01  1.06D+00  9.04D-01
                    CP:  8.85D-01
 E= -891.955510574807     Delta-E=       -0.000238422883 Rises=F Damp=F
 DIIS: error= 2.93D-04 at cycle   7 NSaved=   7.
 NSaved= 7 IEnMin= 7 EnMin= -891.955510574807     IErMin= 7 ErrMin= 2.93D-04
 ErrMax= 2.93D-04  0.00D+00 EMaxC= 1.00D-01 BMatC= 7.55D-05 BMatP= 2.67D-04
 IDIUse=3 WtCom= 9.97D-01 WtEn= 2.93D-03
 Coeff-Com: -0.122D-01 0.135D-01-0.215D-01 0.500D-03 0.110D+00 0.422D+00
 Coeff-Com:  0.487D+00
 Coeff-En:   0.000D+00 0.000D+00 0.000D+00 0.000D+00 0.000D+00 0.943D-01
 Coeff-En:   0.906D+00
 Coeff:     -0.122D-01 0.135D-01-0.215D-01 0.499D-03 0.110D+00 0.421D+00
 Coeff:      0.489D+00
 Gap=     0.086 Goal=   None    Shift=    0.000
 RMSDP=3.50D-05 MaxDP=9.48D-04 DE=-2.38D-04 OVMax= 3.20D-03

 Cycle   8  Pass 0  IDiag  1:
 RMSU=  2.28D-05    CP:  9.38D-01  9.06D-01  5.91D-01  1.07D+00  9.20D-01
                    CP:  9.77D-01  7.30D-01
 E= -891.955589645664     Delta-E=       -0.000079070856 Rises=F Damp=F
 DIIS: error= 7.03D-05 at cycle   8 NSaved=   8.
 NSaved= 8 IEnMin= 8 EnMin= -891.955589645664     IErMin= 8 ErrMin= 7.03D-05
 ErrMax= 7.03D-05  0.00D+00 EMaxC= 1.00D-01 BMatC= 5.74D-06 BMatP= 7.55D-05
 IDIUse=1 WtCom= 1.00D+00 WtEn= 0.00D+00
 Coeff-Com: -0.268D-02 0.270D-02-0.789D-02-0.137D-01 0.171D-01 0.134D+00
 Coeff-Com:  0.265D+00 0.605D+00
 Coeff:     -0.268D-02 0.270D-02-0.789D-02-0.137D-01 0.171D-01 0.134D+00
 Coeff:      0.265D+00 0.605D+00
 Gap=     0.086 Goal=   None    Shift=    0.000
 RMSDP=1.17D-05 MaxDP=5.42D-04 DE=-7.91D-05 OVMax= 1.11D-03

 Cycle   9  Pass 0  IDiag  1:
 RMSU=  7.61D-06    CP:  9.38D-01  9.06D-01  5.90D-01  1.07D+00  9.26D-01
                    CP:  9.88D-01  8.24D-01  8.90D-01
 E= -891.955593847674     Delta-E=       -0.000004202010 Rises=F Damp=F
 DIIS: error= 2.57D-05 at cycle   9 NSaved=   9.
 NSaved= 9 IEnMin= 9 EnMin= -891.955593847674     IErMin= 9 ErrMin= 2.57D-05
 ErrMax= 2.57D-05  0.00D+00 EMaxC= 1.00D-01 BMatC= 7.27D-07 BMatP= 5.74D-06
 IDIUse=1 WtCom= 1.00D+00 WtEn= 0.00D+00
 Coeff-Com: -0.503D-04 0.598D-04-0.126D-02-0.688D-02-0.514D-02 0.791D-02
 Coeff-Com:  0.660D-01 0.324D+00 0.615D+00
 Coeff:     -0.503D-04 0.598D-04-0.126D-02-0.688D-02-0.514D-02 0.791D-02
 Coeff:      0.660D-01 0.324D+00 0.615D+00
 Gap=     0.086 Goal=   None    Shift=    0.000
 RMSDP=3.84D-06 MaxDP=1.60D-04 DE=-4.20D-06 OVMax= 4.95D-04

 Initial convergence to 1.0D-05 achieved.  Increase integral accuracy.
 Cycle  10  Pass 1  IDiag  1:
 E= -891.955539955384     Delta-E=        0.000053892290 Rises=F Damp=F
 DIIS: error= 2.02D-04 at cycle   1 NSaved=   1.
 NSaved= 1 IEnMin= 1 EnMin= -891.955539955384     IErMin= 1 ErrMin= 2.02D-04
 ErrMax= 2.02D-04  0.00D+00 EMaxC= 1.00D-01 BMatC= 5.25D-06 BMatP= 5.25D-06
 IDIUse=3 WtCom= 9.98D-01 WtEn= 2.02D-03
 Coeff-Com:  0.100D+01
 Coeff-En:   0.100D+01
 Coeff:      0.100D+01
 Gap=     0.086 Goal=   None    Shift=    0.000
 RMSDP=3.84D-06 MaxDP=1.60D-04 DE= 5.39D-05 OVMax= 6.19D-04

 Cycle  11  Pass 1  IDiag  1:
 RMSU=  1.56D-04    CP:  1.00D+00
 E= -891.955545381657     Delta-E=       -0.000005426273 Rises=F Damp=F
 DIIS: error= 8.93D-06 at cycle   2 NSaved=   2.
 NSaved= 2 IEnMin= 2 EnMin= -891.955545381657     IErMin= 2 ErrMin= 8.93D-06
 ErrMax= 8.93D-06  0.00D+00 EMaxC= 1.00D-01 BMatC= 1.16D-07 BMatP= 5.25D-06
 IDIUse=1 WtCom= 1.00D+00 WtEn= 0.00D+00
 Coeff-Com:  0.222D-01 0.978D+00
 Coeff:      0.222D-01 0.978D+00
 Gap=     0.086 Goal=   None    Shift=    0.000
 RMSDP=4.30D-06 MaxDP=1.14D-04 DE=-5.43D-06 OVMax= 2.24D-04

 Cycle  12  Pass 1  IDiag  1:
 RMSU=  3.11D-06    CP:  1.00D+00  1.02D+00
 E= -891.955545160704     Delta-E=        0.000000220952 Rises=F Damp=F
 DIIS: error= 1.63D-05 at cycle   3 NSaved=   3.
 NSaved= 3 IEnMin= 2 EnMin= -891.955545381657     IErMin= 2 ErrMin= 8.93D-06
 ErrMax= 1.63D-05  0.00D+00 EMaxC= 1.00D-01 BMatC= 3.25D-07 BMatP= 1.16D-07
 IDIUse=1 WtCom= 1.00D+00 WtEn= 0.00D+00
 Coeff-Com: -0.689D-02 0.631D+00 0.375D+00
 Coeff:     -0.689D-02 0.631D+00 0.375D+00
 Gap=     0.086 Goal=   None    Shift=    0.000
 RMSDP=1.97D-06 MaxDP=8.51D-05 DE= 2.21D-07 OVMax= 1.54D-04

 Cycle  13  Pass 1  IDiag  1:
 RMSU=  7.55D-07    CP:  1.00D+00  1.02D+00  4.16D-01
 E= -891.955545498359     Delta-E=       -0.000000337654 Rises=F Damp=F
 DIIS: error= 2.59D-06 at cycle   4 NSaved=   4.
 NSaved= 4 IEnMin= 4 EnMin= -891.955545498359     IErMin= 4 ErrMin= 2.59D-06
 ErrMax= 2.59D-06  0.00D+00 EMaxC= 1.00D-01 BMatC= 7.08D-09 BMatP= 1.16D-07
 IDIUse=1 WtCom= 1.00D+00 WtEn= 0.00D+00
 Coeff-Com: -0.492D-02 0.385D+00 0.241D+00 0.379D+00
 Coeff:     -0.492D-02 0.385D+00 0.241D+00 0.379D+00
 Gap=     0.086 Goal=   None    Shift=    0.000
 RMSDP=2.79D-07 MaxDP=9.23D-06 DE=-3.38D-07 OVMax= 2.36D-05

 Cycle  14  Pass 1  IDiag  1:
 RMSU=  2.26D-07    CP:  1.00D+00  1.02D+00  4.46D-01  8.21D-01
 E= -891.955545505949     Delta-E=       -0.000000007590 Rises=F Damp=F
 DIIS: error= 3.50D-07 at cycle   5 NSaved=   5.
 NSaved= 5 IEnMin= 5 EnMin= -891.955545505949     IErMin= 5 ErrMin= 3.50D-07
 ErrMax= 3.50D-07  0.00D+00 EMaxC= 1.00D-01 BMatC= 1.88D-10 BMatP= 7.08D-09
 IDIUse=1 WtCom= 1.00D+00 WtEn= 0.00D+00
 Coeff-Com: -0.187D-02 0.140D+00 0.897D-01 0.189D+00 0.584D+00
 Coeff:     -0.187D-02 0.140D+00 0.897D-01 0.189D+00 0.584D+00
 Gap=     0.086 Goal=   None    Shift=    0.000
 RMSDP=9.05D-08 MaxDP=4.04D-06 DE=-7.59D-09 OVMax= 1.15D-05

 Cycle  15  Pass 1  IDiag  1:
 RMSU=  7.73D-08    CP:  1.00D+00  1.02D+00  4.41D-01  8.74D-01  9.73D-01
 E= -891.955545506157     Delta-E=       -0.000000000208 Rises=F Damp=F
 DIIS: error= 2.17D-07 at cycle   6 NSaved=   6.
 NSaved= 6 IEnMin= 6 EnMin= -891.955545506157     IErMin= 6 ErrMin= 2.17D-07
 ErrMax= 2.17D-07  0.00D+00 EMaxC= 1.00D-01 BMatC= 4.24D-11 BMatP= 1.88D-10
 IDIUse=1 WtCom= 1.00D+00 WtEn= 0.00D+00
 Coeff-Com: -0.375D-04-0.120D-02 0.742D-03 0.289D-01 0.343D+00 0.629D+00
 Coeff:     -0.375D-04-0.120D-02 0.742D-03 0.289D-01 0.343D+00 0.629D+00
 Gap=     0.086 Goal=   None    Shift=    0.000
 RMSDP=4.75D-08 MaxDP=1.94D-06 DE=-2.08D-10 OVMax= 8.67D-06

 Cycle  16  Pass 1  IDiag  1:
 RMSU=  3.88D-08    CP:  1.00D+00  1.02D+00  4.45D-01  8.94D-01  1.04D+00
                    CP:  8.63D-01
 E= -891.955545506237     Delta-E=       -0.000000000080 Rises=F Damp=F
 DIIS: error= 9.11D-08 at cycle   7 NSaved=   7.
 NSaved= 7 IEnMin= 7 EnMin= -891.955545506237     IErMin= 7 ErrMin= 9.11D-08
 ErrMax= 9.11D-08  0.00D+00 EMaxC= 1.00D-01 BMatC= 8.70D-12 BMatP= 4.24D-11
 IDIUse=1 WtCom= 1.00D+00 WtEn= 0.00D+00
 Coeff-Com:  0.233D-03-0.199D-01-0.118D-01-0.791D-02 0.134D+00 0.388D+00
 Coeff-Com:  0.517D+00
 Coeff:      0.233D-03-0.199D-01-0.118D-01-0.791D-02 0.134D+00 0.388D+00
 Coeff:      0.517D+00
 Gap=     0.086 Goal=   None    Shift=    0.000
 RMSDP=1.66D-08 MaxDP=7.03D-07 DE=-8.00D-11 OVMax= 3.29D-06

 Cycle  17  Pass 1  IDiag  1:
 RMSU=  1.19D-08    CP:  1.00D+00  1.02D+00  4.45D-01  9.01D-01  1.06D+00
                    CP:  9.75D-01  1.08D+00
 E= -891.955545506241     Delta-E=       -0.000000000004 Rises=F Damp=F
 DIIS: error= 2.61D-08 at cycle   8 NSaved=   8.
 NSaved= 8 IEnMin= 8 EnMin= -891.955545506241     IErMin= 8 ErrMin= 2.61D-08
 ErrMax= 2.61D-08  0.00D+00 EMaxC= 1.00D-01 BMatC= 6.37D-13 BMatP= 8.70D-12
 IDIUse=1 WtCom= 1.00D+00 WtEn= 0.00D+00
 Coeff-Com:  0.108D-03-0.862D-02-0.527D-02-0.761D-02 0.119D-01 0.868D-01
 Coeff-Com:  0.241D+00 0.682D+00
 Coeff:      0.108D-03-0.862D-02-0.527D-02-0.761D-02 0.119D-01 0.868D-01
 Coeff:      0.241D+00 0.682D+00
 Gap=     0.086 Goal=   None    Shift=    0.000
 RMSDP=8.35D-09 MaxDP=1.94D-07 DE=-4.09D-12 OVMax= 1.82D-06

 SCF Done:  E(RPBE1PBE) =  -891.955545506     A.U. after   17 cycles
            NFock= 17  Conv=0.84D-08     -V/T= 2.0106
 KE= 8.825724168140D+02 PE=-5.788365121650D+03 EE= 2.162719121532D+03
 Leave Link  502 at Fri Jan 24 16:53:47 2025, MaxMem=  3221225472 cpu:            1220.4 elap:              51.0
 (Enter /software/gaussian/G16-C.01/avx2/g16/l601.exe)
 Copying SCF densities to generalized density rwf, IOpCl= 0 IROHF=0.

 **********************************************************************

            Population analysis using the SCF Density.

 **********************************************************************

 Orbital symmetries:
       Occupied  (A) (A) (A) (A) (A) (A) (A) (A) (A) (A) (A) (A)
                 (A) (A) (A) (A) (A) (A) (A) (A) (A) (A) (A) (A)
                 (A) (A) (A) (A) (A) (A) (A) (A) (A) (A) (A) (A)
                 (A) (A) (A) (A) (A) (A) (A) (A) (A) (A) (A) (A)
                 (A) (A) (A) (A) (A) (A) (A) (A) (A) (A) (A) (A)
                 (A) (A) (A) (A) (A) (A) (A) (A) (A) (A) (A) (A)
                 (A) (A) (A) (A) (A) (A) (A) (A) (A)
       Virtual   (A) (A) (A) (A) (A) (A) (A) (A) (A) (A) (A) (A)
                 (A) (A) (A) (A) (A) (A) (A) (A) (A) (A) (A) (A)
                 (A) (A) (A) (A) (A) (A) (A) (A) (A) (A) (A) (A)
                 (A) (A) (A) (A) (A) (A) (A) (A) (A) (A) (A) (A)
                 (A) (A) (A) (A) (A) (A) (A) (A) (A) (A) (A) (A)
                 (A) (A) (A) (A) (A) (A) (A) (A) (A) (A) (A) (A)
                 (A) (A) (A) (A) (A) (A) (A) (A) (A) (A) (A) (A)
                 (A) (A) (A) (A) (A) (A) (A) (A) (A) (A) (A) (A)
                 (A) (A) (A) (A) (A) (A) (A) (A) (A) (A) (A) (A)
                 (A) (A) (A) (A) (A) (A) (A) (A) (A) (A) (A) (A)
                 (A) (A) (A) (A) (A) (A) (A) (A) (A) (A) (A) (A)
                 (A) (A) (A) (A) (A) (A) (A) (A) (A) (A) (A) (A)
                 (A) (A) (A) (A) (A) (A) (A) (A) (A) (A) (A) (A)
                 (A) (A) (A) (A) (A) (A) (A) (A) (A) (A) (A) (A)
                 (A) (A) (A) (A) (A) (A) (A) (A) (A) (A) (A) (A)
                 (A) (A) (A) (A) (A) (A) (A) (A) (A) (A) (A) (A)
                 (A) (A) (A) (A) (A) (A) (A) (A) (A) (A) (A) (A)
                 (A) (A) (A) (A) (A) (A) (A) (A) (A) (A) (A) (A)
                 (A) (A) (A) (A) (A) (A) (A) (A) (A) (A) (A) (A)
                 (A) (A) (A) (A) (A) (A) (A) (A) (A) (A) (A) (A)
                 (A) (A) (A) (A) (A) (A) (A) (A) (A) (A) (A) (A)
                 (A) (A) (A) (A) (A) (A) (A) (A) (A) (A) (A) (A)
                 (A) (A) (A) (A) (A) (A) (A) (A) (A) (A) (A) (A)
                 (A) (A) (A) (A) (A) (A) (A) (A) (A) (A) (A) (A)
                 (A) (A) (A) (A) (A) (A) (A) (A) (A) (A) (A) (A)
                 (A) (A) (A) (A) (A) (A) (A) (A) (A) (A) (A) (A)
                 (A) (A) (A) (A) (A) (A) (A) (A) (A) (A) (A) (A)
                 (A) (A) (A) (A) (A) (A) (A) (A) (A) (A) (A) (A)
                 (A) (A) (A) (A) (A) (A) (A) (A) (A) (A) (A) (A)
                 (A) (A) (A) (A) (A) (A) (A) (A)
 The electronic state is 1-A.
 Alpha  occ. eigenvalues --  -14.26289 -10.16086 -10.15692 -10.13633 -10.13458
 Alpha  occ. eigenvalues --  -10.13338 -10.12629 -10.12474 -10.12138 -10.11559
 Alpha  occ. eigenvalues --  -10.10483 -10.10429 -10.10328 -10.10278 -10.10083
 Alpha  occ. eigenvalues --  -10.08247 -10.08116 -10.07835 -10.05713 -10.05668
 Alpha  occ. eigenvalues --  -10.05347 -10.05047  -6.52482  -0.83085  -0.74752
 Alpha  occ. eigenvalues --   -0.70844  -0.69524  -0.67512  -0.67133  -0.63513
 Alpha  occ. eigenvalues --   -0.62517  -0.61420  -0.60793  -0.58523  -0.56346
 Alpha  occ. eigenvalues --   -0.53924  -0.52900  -0.49055  -0.47932  -0.47815
 Alpha  occ. eigenvalues --   -0.45408  -0.43246  -0.39703  -0.39027  -0.37720
 Alpha  occ. eigenvalues --   -0.37216  -0.36467  -0.34793  -0.34374  -0.33644
 Alpha  occ. eigenvalues --   -0.32694  -0.32483  -0.31501  -0.31195  -0.30829
 Alpha  occ. eigenvalues --   -0.30472  -0.29490  -0.29181  -0.28886  -0.28718
 Alpha  occ. eigenvalues --   -0.28138  -0.27676  -0.26515  -0.26156  -0.25424
 Alpha  occ. eigenvalues --   -0.24733  -0.23036  -0.22117  -0.21600  -0.21199
 Alpha  occ. eigenvalues --   -0.20332  -0.17346  -0.16250  -0.15201  -0.13598
 Alpha  occ. eigenvalues --   -0.13320  -0.12598  -0.12388  -0.11641  -0.10331
 Alpha  occ. eigenvalues --    0.01005
 Alpha virt. eigenvalues --    0.09624   0.10205   0.11255   0.12690   0.13600
 Alpha virt. eigenvalues --    0.17216   0.17945   0.18622   0.19383   0.19649
 Alpha virt. eigenvalues --    0.20868   0.21626   0.21950   0.22888   0.23198
 Alpha virt. eigenvalues --    0.23724   0.24462   0.24910   0.25155   0.26068
 Alpha virt. eigenvalues --    0.26247   0.26680   0.27034   0.27850   0.28379
 Alpha virt. eigenvalues --    0.28666   0.29521   0.30179   0.30914   0.32005
 Alpha virt. eigenvalues --    0.32758   0.33454   0.34802   0.35547   0.35944
 Alpha virt. eigenvalues --    0.37280   0.37726   0.39781   0.40192   0.41585
 Alpha virt. eigenvalues --    0.42064   0.42668   0.43591   0.43928   0.45486
 Alpha virt. eigenvalues --    0.46719   0.47266   0.47910   0.48257   0.48727
 Alpha virt. eigenvalues --    0.49474   0.50795   0.51546   0.52482   0.52823
 Alpha virt. eigenvalues --    0.53161   0.53915   0.54787   0.55126   0.56004
 Alpha virt. eigenvalues --    0.56610   0.57293   0.57786   0.58076   0.58407
 Alpha virt. eigenvalues --    0.59070   0.59365   0.59720   0.60624   0.60882
 Alpha virt. eigenvalues --    0.62022   0.62352   0.63350   0.63593   0.64600
 Alpha virt. eigenvalues --    0.65467   0.66258   0.66606   0.67281   0.67824
 Alpha virt. eigenvalues --    0.68487   0.69535   0.70340   0.71242   0.72499
 Alpha virt. eigenvalues --    0.72868   0.73426   0.74017   0.74237   0.74669
 Alpha virt. eigenvalues --    0.75347   0.75740   0.76215   0.76706   0.77377
 Alpha virt. eigenvalues --    0.77706   0.77834   0.77980   0.78743   0.79550
 Alpha virt. eigenvalues --    0.79940   0.80078   0.80432   0.80741   0.81090
 Alpha virt. eigenvalues --    0.81512   0.81553   0.82051   0.82509   0.82674
 Alpha virt. eigenvalues --    0.83457   0.83667   0.83995   0.84068   0.84416
 Alpha virt. eigenvalues --    0.84977   0.85576   0.85733   0.86293   0.86929
 Alpha virt. eigenvalues --    0.87687   0.88027   0.88449   0.89207   0.89660
 Alpha virt. eigenvalues --    0.90644   0.90830   0.90982   0.92072   0.92665
 Alpha virt. eigenvalues --    0.92829   0.94483   0.94959   0.96105   0.96966
 Alpha virt. eigenvalues --    0.97703   0.98138   0.98982   0.99983   1.00060
 Alpha virt. eigenvalues --    1.00948   1.02951   1.03475   1.03837   1.06884
 Alpha virt. eigenvalues --    1.08367   1.08949   1.10330   1.12191   1.13743
 Alpha virt. eigenvalues --    1.14791   1.15748   1.16229   1.19025   1.21205
 Alpha virt. eigenvalues --    1.21707   1.24174   1.25936   1.27962   1.29796
 Alpha virt. eigenvalues --    1.30472   1.31258   1.32628   1.33173   1.34712
 Alpha virt. eigenvalues --    1.35912   1.36613   1.37960   1.38036   1.38691
 Alpha virt. eigenvalues --    1.39305   1.40028   1.40472   1.40956   1.42648
 Alpha virt. eigenvalues --    1.44171   1.44570   1.47271   1.48265   1.49082
 Alpha virt. eigenvalues --    1.50640   1.52350   1.53735   1.56028   1.57078
 Alpha virt. eigenvalues --    1.57896   1.58587   1.61247   1.62071   1.62478
 Alpha virt. eigenvalues --    1.63197   1.65246   1.65864   1.67804   1.68363
 Alpha virt. eigenvalues --    1.68896   1.69196   1.70817   1.72411   1.73076
 Alpha virt. eigenvalues --    1.74148   1.74868   1.77676   1.80006   1.81193
 Alpha virt. eigenvalues --    1.81792   1.82924   1.83672   1.84334   1.85005
[...]
    45  H   -0.004804   0.023596  -0.068768   0.349420  -0.000173  -0.000006
    46  H    0.008486   0.005092  -0.000552  -0.037810  -0.002975  -0.000138
              25         26         27         28         29         30
     1  C    0.391915   0.408631  -0.007286  -0.000824   0.000002  -0.000006
     2  C   -0.030538  -0.074839  -0.035001   0.009062   0.000539   0.000140
     3  C   -0.004083   0.016058   0.389874  -0.064483  -0.001129   0.000131
     4  C    0.000040   0.001434  -0.054593   0.416157   0.004031   0.000152
     5  C    0.000188   0.000003   0.008080  -0.050523  -0.033677  -0.058048
     6  C   -0.000004  -0.000028  -0.000069  -0.017839   0.402179   0.371106
     7  C    0.000437   0.000113  -0.000875   0.018375  -0.002545   0.016173
     8  C   -0.000845   0.000052   0.000208  -0.000129  -0.008182   0.001445
     9  C    0.000432   0.000034  -0.000093   0.000103   0.004377   0.000420
    10  C   -0.000443  -0.000051   0.000115  -0.000095  -0.000154  -0.000219
    11  C    0.000024   0.000000  -0.000001   0.000004   0.001076  -0.000019
    12  C   -0.000001   0.000000   0.000000  -0.000001   0.000029  -0.000035
    13  C   -0.000001  -0.000000   0.000001  -0.000002   0.001767   0.000000
    14  C   -0.000000  -0.000000  -0.000000   0.000000   0.000063  -0.000002
    15  C   -0.000145  -0.000016   0.000079  -0.000128  -0.004773  -0.000225
    16  B    0.000112   0.000056  -0.000255   0.000161   0.004683   0.000090
    17  C   -0.000000   0.000000   0.000001   0.000028   0.000393   0.000486
    18  C    0.000000  -0.000000   0.000000   0.000009   0.000153   0.000025
    19  C   -0.000000   0.000000  -0.000000  -0.000001  -0.000006   0.000024
    20  C    0.000000  -0.000000   0.000000  -0.000002   0.000004  -0.000012
    21  C   -0.000000  -0.000000  -0.000000   0.000001  -0.000011   0.000002
    22  C   -0.000005  -0.000002   0.000006  -0.000011   0.000156  -0.000026
    23  N    0.002605   0.005660   0.008754  -0.001996   0.000443  -0.000711
    24  H   -0.027255  -0.022281  -0.000121   0.000032   0.000002   0.000001
    25  H    0.574601  -0.025081  -0.000259   0.000035  -0.000003  -0.000000
    26  H   -0.025081   0.589305   0.000453  -0.000013  -0.000000   0.000002
    27  H   -0.000259   0.000453   0.615968  -0.009578   0.000023  -0.000187
    28  H    0.000035  -0.000013  -0.009578   0.607826   0.000212   0.007543
    29  H   -0.000003  -0.000000   0.000023   0.000212   0.563861  -0.030551
    30  H   -0.000000   0.000002  -0.000187   0.007543  -0.030551   0.620580
    31  H    0.000002   0.000000   0.000010   0.000622  -0.026546  -0.016266
    32  H    0.000026   0.000003   0.000001   0.000017  -0.000301  -0.000042
    33  H    0.000718   0.000070  -0.000074   0.000026   0.000137   0.000025
    34  H    0.000005   0.000000  -0.000001   0.000002  -0.000075   0.000001
    35  H   -0.000000  -0.000000  -0.000000   0.000000   0.000013   0.000001
    36  H    0.000000   0.000000   0.000000  -0.000000   0.000009  -0.000000
    37  H   -0.000000  -0.000000   0.000000  -0.000000  -0.000001  -0.000000
    38  H    0.000000  -0.000000   0.000000  -0.000000   0.000005  -0.000004
    39  H    0.000000  -0.000000   0.000000  -0.000000  -0.000005  -0.000000
    40  H    0.000000  -0.000000   0.000000  -0.000004   0.000026   0.000335
    41  H    0.000000   0.000000   0.000000  -0.000000  -0.000001  -0.000035
    42  H    0.000000   0.000000  -0.000000  -0.000000  -0.000001  -0.000001
    43  H    0.000000   0.000000   0.000000  -0.000000   0.000000  -0.000000
    44  H   -0.000000   0.000000  -0.000000  -0.000000   0.000000   0.000000
    45  H    0.000000  -0.000000   0.000000  -0.000000  -0.000000  -0.000001
    46  H    0.000014  -0.000015   0.000089  -0.000359  -0.000436  -0.000241
              31         32         33         34         35         36
     1  C   -0.000012  -0.000030  -0.000757   0.000008   0.000002  -0.000000
     2  C    0.000188  -0.000741  -0.001450   0.000053  -0.000001   0.000001
     3  C   -0.000683   0.000406   0.000773  -0.000067   0.000000   0.000000
     4  C   -0.005387   0.001521   0.000823   0.000024  -0.000006   0.000000
     5  C   -0.012083   0.013388  -0.005365   0.000578  -0.000027   0.000011
     6  C    0.376850  -0.000055  -0.000470  -0.000057   0.000004  -0.000016
     7  C   -0.008935  -0.006563  -0.015673   0.000351   0.000051   0.000501
     8  C   -0.000718  -0.011162   0.009745   0.004599   0.037666  -0.006356
     9  C   -0.000509  -0.030676  -0.037950  -0.059656  -0.102101   0.021425
    10  C    0.000044   0.398453   0.406779   0.385149  -0.026190  -0.000604
    11  C   -0.000001  -0.006982  -0.005620   0.010535   0.467393  -0.094175
    12  C    0.000281   0.000643  -0.000283  -0.000608  -0.096673   0.444092
    13  C   -0.000109  -0.000735   0.000027   0.000785   0.026505  -0.079573
    14  C    0.000303  -0.000015   0.000002  -0.000006  -0.000522  -0.023806
    15  C   -0.001195   0.005268  -0.002718  -0.001875  -0.014509   0.027317
    16  B   -0.021160  -0.000232   0.001188   0.000209   0.000294  -0.001213
    17  C    0.017309   0.000004  -0.000008  -0.000003  -0.000007  -0.000021
    18  C    0.010953   0.000001  -0.000000   0.000000   0.000000  -0.000004
    19  C    0.000107   0.000000   0.000000  -0.000000   0.000000   0.000000
    20  C    0.000042  -0.000000  -0.000000   0.000000  -0.000000   0.000000
    21  C   -0.000472  -0.000000   0.000000   0.000000   0.000000  -0.000004
    22  C    0.001954  -0.000004  -0.000026  -0.000003  -0.000009   0.000015
    23  N   -0.000108  -0.005790   0.018392   0.001113   0.000064  -0.000005
    24  H   -0.000003  -0.000003   0.000131   0.000000   0.000000   0.000000
    25  H    0.000002   0.000026   0.000718   0.000005  -0.000000   0.000000
    26  H    0.000000   0.000003   0.000070   0.000000  -0.000000   0.000000
    27  H    0.000010   0.000001  -0.000074  -0.000001  -0.000000   0.000000
    28  H    0.000622   0.000017   0.000026   0.000002   0.000000  -0.000000
    29  H   -0.026546  -0.000301   0.000137  -0.000075   0.000013   0.000009
    30  H   -0.016266  -0.000042   0.000025   0.000001   0.000001  -0.000000
    31  H    0.519918   0.000062  -0.000002  -0.000004  -0.000002   0.000004
    32  H    0.000062   0.590639  -0.035448  -0.026573   0.000226   0.000038
    33  H   -0.000002  -0.035448   0.554049  -0.022479   0.000507   0.000024
    34  H   -0.000004  -0.026573  -0.022479   0.600597   0.008710  -0.000174
    35  H   -0.000002   0.000226   0.000507   0.008710   0.656329  -0.013745
    36  H    0.000004   0.000038   0.000024  -0.000174  -0.013745   0.659880
    37  H   -0.000020   0.000000  -0.000000   0.000001  -0.000167   0.009928
    38  H   -0.000280  -0.000003   0.000002   0.000000   0.000018   0.000857
    39  H   -0.000057   0.000002  -0.000003   0.000000   0.000025   0.000706
    40  H    0.002965   0.000005  -0.000001  -0.000000  -0.000003   0.000094
    41  H   -0.000097  -0.000000   0.000000  -0.000000  -0.000000   0.000000
    42  H   -0.000101   0.000000   0.000000   0.000000  -0.000000   0.000000
    43  H    0.000001  -0.000000   0.000000   0.000000   0.000000  -0.000000
    44  H    0.000005   0.000000  -0.000000  -0.000000  -0.000000   0.000000
    45  H   -0.000100  -0.000001   0.000001   0.000000  -0.000007   0.000103
    46  H   -0.002195   0.000042  -0.000052   0.000003  -0.000005   0.000025
              37         38         39         40         41         42
     1  C   -0.000000   0.000000   0.000000  -0.000000   0.000000   0.000000
     2  C    0.000000   0.000000   0.000001  -0.000003   0.000000   0.000000
     3  C    0.000000   0.000000   0.000000   0.000011   0.000000   0.000000
     4  C   -0.000000   0.000002  -0.000001  -0.000072   0.000001  -0.000001
     5  C   -0.000005   0.000076  -0.000016  -0.000363  -0.000001  -0.000008
     6  C    0.000018   0.000041   0.000037  -0.002306   0.000056   0.000042
     7  C    0.000178   0.000161   0.000699   0.001460  -0.000050  -0.000003
     8  C    0.000396   0.002059   0.001905  -0.001337   0.000091   0.000000
     9  C    0.000021   0.000215  -0.000589  -0.000012   0.000002   0.000000
    10  C   -0.000009  -0.000007  -0.000019   0.000001   0.000000   0.000000
    11  C    0.000971  -0.001035   0.000027  -0.000603  -0.000001  -0.000000
    12  C   -0.009478  -0.002569  -0.003997   0.001559   0.000001   0.000000
    13  C   -0.060352  -0.022497  -0.007850   0.011386  -0.000360  -0.000012
    14  C    0.350351   0.366407   0.364415  -0.012193   0.000145  -0.000006
    15  C    0.018463  -0.002288  -0.011478  -0.003419  -0.000881  -0.000019
    16  B   -0.007706  -0.008317  -0.020393  -0.077076   0.012964  -0.000882
    17  C    0.001607   0.004776  -0.000348   0.342258  -0.039919   0.011251
    18  C    0.000590   0.007285   0.003068  -0.051910   0.394308  -0.061549
    19  C   -0.000071  -0.000535  -0.000876   0.023319  -0.088874   0.387650
    20  C   -0.000036  -0.000368   0.000178  -0.004667   0.012254  -0.047854
    21  C    0.000589   0.002710   0.008837   0.003617  -0.001696   0.010914
    22  C    0.002528   0.002088   0.012915   0.007847   0.000019  -0.000704
    23  N   -0.000001   0.000001  -0.000013  -0.000017   0.000000   0.000000
    24  H   -0.000000  -0.000000  -0.000000  -0.000000  -0.000000  -0.000000
    25  H   -0.000000   0.000000   0.000000   0.000000   0.000000   0.000000
    26  H   -0.000000  -0.000000  -0.000000  -0.000000   0.000000   0.000000
    27  H    0.000000   0.000000   0.000000   0.000000   0.000000  -0.000000
    28  H   -0.000000  -0.000000  -0.000000  -0.000004  -0.000000  -0.000000
    29  H   -0.000001   0.000005  -0.000005   0.000026  -0.000001  -0.000001
    30  H   -0.000000  -0.000004  -0.000000   0.000335  -0.000035  -0.000001
    31  H   -0.000020  -0.000280  -0.000057   0.002965  -0.000097  -0.000101
    32  H    0.000000  -0.000003   0.000002   0.000005  -0.000000   0.000000
    33  H   -0.000000   0.000002  -0.000003  -0.000001   0.000000   0.000000
    34  H    0.000001   0.000000   0.000000  -0.000000  -0.000000   0.000000
    35  H   -0.000167   0.000018   0.000025  -0.000003  -0.000000  -0.000000
    36  H    0.009928   0.000857   0.000706   0.000094   0.000000   0.000000
    37  H    0.646944  -0.020527  -0.018860   0.000604   0.000016   0.000000
    38  H   -0.020527   0.589906  -0.028725   0.001206   0.000139   0.000019
    39  H   -0.018860  -0.028725   0.586790   0.001430  -0.000037   0.000006
    40  H    0.000604   0.001206   0.001430   0.696808  -0.028294  -0.000887
    41  H    0.000016   0.000139  -0.000037  -0.028294   0.696148  -0.005418
    42  H    0.000000   0.000019   0.000006  -0.000887  -0.005418   0.665131
    43  H    0.000000   0.000006   0.000023   0.000093  -0.000916  -0.018532
    44  H    0.000010  -0.000070  -0.000061   0.000153   0.000018  -0.000956
    45  H    0.000738   0.001834   0.003616  -0.001349   0.000136   0.000099
    46  H    0.000077   0.000932   0.001155   0.006634  -0.000244   0.000034
              43         44         45         46
     1  C    0.000000  -0.000000   0.000006   0.000170
     2  C   -0.000000  -0.000002   0.000060   0.003547
     3  C    0.000000   0.000000   0.000009   0.001222
     4  C   -0.000000   0.000000  -0.000007   0.001694
     5  C    0.000000  -0.000004   0.000160  -0.002832
     6  C   -0.000000  -0.000000   0.000040  -0.000994
     7  C   -0.000002  -0.000022   0.001924   0.041463
     8  C   -0.000003   0.000064   0.002160  -0.037294
     9  C    0.000000   0.000003  -0.000042   0.000066
    10  C    0.000000   0.000000   0.000003  -0.000128
    11  C    0.000000  -0.000001  -0.000604  -0.000134
    12  C   -0.000000  -0.000004   0.002035  -0.000487
    13  C   -0.000005  -0.000459   0.010908   0.002922
    14  C   -0.000004   0.000305  -0.015148  -0.002432
    15  C    0.000031  -0.000338  -0.016823  -0.046546
    16  B   -0.002564   0.011667  -0.044140   0.458113
    17  C   -0.001223  -0.000068   0.002869  -0.082308
    18  C    0.012505  -0.001817   0.003164  -0.005362
    19  C   -0.050692   0.013033  -0.004804   0.008486
    20  C    0.393700  -0.090974   0.023596   0.005092
    21  C   -0.063246   0.399980  -0.068768  -0.000552
    22  C    0.009813  -0.042391   0.349420  -0.037810
    23  N   -0.000000   0.000000  -0.000173  -0.002975
    24  H   -0.000000   0.000000  -0.000006  -0.000138
    25  H    0.000000  -0.000000   0.000000   0.000014
    26  H    0.000000   0.000000  -0.000000  -0.000015
    27  H    0.000000  -0.000000   0.000000   0.000089
    28  H   -0.000000  -0.000000  -0.000000  -0.000359
    29  H    0.000000   0.000000  -0.000000  -0.000436
    30  H   -0.000000   0.000000  -0.000001  -0.000241
    31  H    0.000001   0.000005  -0.000100  -0.002195
    32  H   -0.000000   0.000000  -0.000001   0.000042
    33  H    0.000000  -0.000000   0.000001  -0.000052
    34  H    0.000000  -0.000000   0.000000   0.000003
    35  H    0.000000  -0.000000  -0.000007  -0.000005
    36  H   -0.000000   0.000000   0.000103   0.000025
    37  H    0.000000   0.000010   0.000738   0.000077
    38  H    0.000006  -0.000070   0.001834   0.000932
    39  H    0.000023  -0.000061   0.003616   0.001155
    40  H    0.000093   0.000153  -0.001349   0.006634
    41  H   -0.000916   0.000018   0.000136  -0.000244
    42  H   -0.018532  -0.000956   0.000099   0.000034
    43  H    0.666177  -0.006590  -0.000739   0.000196
    44  H   -0.006590   0.696370  -0.027901   0.000227
    45  H   -0.000739  -0.027901   0.699537   0.005277
    46  H    0.000196   0.000227   0.005277   0.694218
 Mulliken charges:
               1
     1  C   -0.414901
     2  C    0.166658
     3  C   -0.167036
     4  C   -0.188159
     5  C    0.038406
     6  C   -0.344171
     7  C    0.210605
     8  C    0.073760
     9  C    0.005034
    10  C   -0.400919
    11  C   -0.183821
    12  C   -0.260585
    13  C    0.062082
    14  C   -0.311294
    15  C    0.034673
    16  B   -0.184723
    17  C   -0.181928
    18  C   -0.172834
    19  C   -0.105922
    20  C   -0.100897
    21  C   -0.173278
    22  C   -0.151173
    23  N   -0.276542
    24  H    0.132902
    25  H    0.117510
    26  H    0.100454
    27  H    0.084734
    28  H    0.085775
    29  H    0.124213
    30  H    0.087949
    31  H    0.165425
    32  H    0.114610
    33  H    0.134959
    34  H    0.098856
    35  H    0.056165
    36  H    0.054665
    37  H    0.083205
    38  H    0.106479
    39  H    0.107493
    40  H    0.082706
    41  H    0.050525
    42  H    0.061787
    43  H    0.061968
    44  H    0.049823
    45  H    0.072916
    46  H   -0.008154
 Sum of Mulliken charges =  -1.00000
 Mulliken charges with hydrogens summed into heavy atoms:
               1
     1  C   -0.064034
     2  C    0.166658
     3  C   -0.082302
     4  C   -0.102385
     5  C    0.038406
     6  C    0.033417
     7  C    0.210605
     8  C    0.073760
     9  C    0.005034
    10  C   -0.052494
    11  C   -0.127656
    12  C   -0.205920
    13  C    0.062082
    14  C   -0.014116
    15  C    0.034673
    16  B   -0.192877
    17  C   -0.099223
    18  C   -0.122310
    19  C   -0.044135
    20  C   -0.038929
    21  C   -0.123455
    22  C   -0.078257
    23  N   -0.276542
 Electronic spatial extent (au):  <R**2>=           7156.8783
 Charge=             -1.0000 electrons
 Dipole moment (field-independent basis, Debye):
    X=              5.4717    Y=              0.2437    Z=              1.6668  Tot=              5.7251
 Quadrupole moment (field-independent basis, Debye-Ang):
   XX=           -175.4200   YY=           -156.2926   ZZ=           -148.3413
   XY=             -8.9073   XZ=             -0.0149   YZ=             -0.7996
 Traceless Quadrupole moment (field-independent basis, Debye-Ang):
   XX=            -15.4020   YY=              3.7254   ZZ=             11.6767
   XY=             -8.9073   XZ=             -0.0149   YZ=             -0.7996
 Octapole moment (field-independent basis, Debye-Ang**2):
  XXX=            103.5481  YYY=            -14.9636  ZZZ=              4.8424  XYY=             26.3154
  XXY=             16.5689  XXZ=              4.5736  XZZ=             11.2919  YZZ=             -7.0090
  YYZ=              3.0999  XYZ=              0.1891
 Hexadecapole moment (field-independent basis, Debye-Ang**3):
 XXXX=          -6100.9550 YYYY=          -3587.8804 ZZZZ=          -1394.5458 XXXY=           -102.9317
 XXXZ=            -55.1713 YYYX=            -69.4762 YYYZ=            -14.3367 ZZZX=              1.2000
 ZZZY=             -5.3847 XXYY=          -1536.5271 XXZZ=          -1189.8215 YYZZ=           -842.5797
 XXYZ=             -4.2166 YYXZ=              4.4293 ZZXY=            -22.1183
 N-N= 1.826471497879D+03 E-N=-5.745860773403D+03  KE= 8.879591022850D+02
 No NMR shielding tensors so no spin-rotation constants.
 Leave Link  601 at Fri Jan 24 17:31:03 2025, MaxMem=  3221225472 cpu:              12.4 elap:               0.6
 (Enter /software/gaussian/G16-C.01/avx2/g16/l9999.exe)
 Unable to Open any file for archive entry.
 1\1\GINC-NODE31\SP\RPBE1PBE\def2TZVP\C21H23B1N1(1-)\LAPLAZA\24-Jan-202
 5\0\\#p def2tzvp pbe1pbe integral=ultrafinegrid geom=allcheck guess=re
 ad em=gd3bj\\with_hydride\\-1,1\C,0,3.2716012869,1.9724374708,2.847947
 9204\C,0,2.7988964652,1.599893694,1.4717368925\C,0,3.1375574971,2.3475
 170895,0.3459152593\C,0,2.6581023329,1.9318572105,-0.8956232673\C,0,1.
 8436066618,0.8094249615,-0.9954908107\C,0,1.2740631949,0.3634249284,-2
 .3037112667\C,0,1.545871506,0.1248140301,0.2070202655\C,0,0.7316171648
 ,-1.1293732295,0.1911262634\C,0,1.4371096879,-2.3403670527,0.366031845
 \C,0,2.9271953301,-2.3544302026,0.5693415474\C,0,0.718087586,-3.532854
 0219,0.3473923453\C,0,-0.6628844491,-3.5144029729,0.1698414776\C,0,-1.
 3585347985,-2.3155962927,0.0024187785\C,0,-2.8530215317,-2.3729602124,
 -0.1727584721\C,0,-0.6654237427,-1.0750231567,0.0027438293\B,0,-1.4571
 525219,0.3434820692,-0.187738747\C,0,-2.2243947482,0.4087523077,-1.614
 4577444\C,0,-3.0385399451,1.4011963788,-2.050398363\C,0,-3.5092588835,
 2.5397238324,-1.2857921418\C,0,-3.6766565654,2.6297970676,0.0616634962
 \C,0,-3.4195351416,1.618971373,1.0688738018\C,0,-2.5363175453,0.593955
 0635,0.9896542237\N,0,2.0364587454,0.5070442974,1.3846470922\H,0,2.407
 8322057,2.164388658,3.5034900396\H,0,3.8325344681,1.1385380072,3.29863
 2148\H,0,3.9118999992,2.8664109452,2.8367817532\H,0,3.7688227829,3.235
 3564414,0.4366286687\H,0,2.9116481522,2.4952121261,-1.7993772892\H,0,1
 .3625453283,-0.7260299578,-2.4298839317\H,0,1.7712532924,0.866209244,-
 3.1470545711\H,0,0.1971962147,0.5987388814,-2.337270982\H,0,3.45463846
 7,-1.8285552947,-0.2438716641\H,0,3.199655552,-1.8324289845,1.49955600
 92\H,0,3.3098330037,-3.3854676657,0.6161227684\H,0,1.2448613751,-4.484
 3422091,0.4755161483\H,0,-1.2169711699,-4.4598366362,0.1620887969\H,0,
 -3.2159655255,-3.4123816708,-0.1393103991\H,0,-3.169468024,-1.92056753
 11,-1.1243440076\H,0,-3.3737358646,-1.7932189077,0.6039232749\H,0,-2.0
 636850862,-0.3978112094,-2.350934867\H,0,-3.4042356625,1.3731216334,-3
 .0889142874\H,0,-3.860508993,3.3964330887,-1.8772424222\H,0,-4.1464614
 607,3.5526840635,0.4291568237\H,0,-4.0130760584,1.7398978054,1.9884817
 612\H,0,-2.5478034476,-0.0846513595,1.8590044904\H,0,-0.647054325,1.28
 26604093,-0.1392909764\\Version=ES64L-G16RevC.01\State=1-A\HF=-892.994
 0741\RMSD=2.980e-09\Dipole=2.2295371,-0.2719786,-0.169182\Quadrupole=-
 9.3493464,1.6084691,7.7408773,7.6141115,-4.1304896,1.1380719\PG=C01 [X
 (C21H23B1N1)]\\@
 The archive entry for this job was punched.


 THERE IS NO SCIENCE WITHOUT FANCY, NOR ART WITHOUT FACTS.
     -- VLADIMIR NABAKOV
 Job cpu time:       0 days  2 hours 53 minutes 11.1 seconds.
 Elapsed time:       0 days  0 hours  7 minutes 14.4 seconds.
 File lengths (MBytes):  RWF=    375 Int=      0 D2E=      0 Chk=     51 Scr=      1
 Normal termination of Gaussian 16 at Fri Jan 24 17:31:03 2025.
