 Entering Gaussian System, Link 0=g16
 Input=neutral.com
 Output=neutral.log
 Initial command:
 /software/gaussian/G16-C.01/avx2/g16/l1.exe "/scratch/laplaza/9953172.slurm/Gau-323807.inp" -scrdir="/scratch/laplaza/9953172.slurm/"
 Entering Link 1 = /software/gaussian/G16-C.01/avx2/g16/l1.exe PID=    323808.
  
 Copyright (c) 1988-2019, Gaussian, Inc.  All Rights Reserved.
  
 This is part of the Gaussian(R) 16 program.  It is based on
 the Gaussian(R) 09 system (copyright 2009, Gaussian, Inc.),
 the Gaussian(R) 03 system (copyright 2003, Gaussian, Inc.),
 the Gaussian(R) 98 system (copyright 1998, Gaussian, Inc.),
 the Gaussian(R) 94 system (copyright 1995, Gaussian, Inc.),
 the Gaussian 92(TM) system (copyright 1992, Gaussian, Inc.),
 the Gaussian 90(TM) system (copyright 1990, Gaussian, Inc.),
 the Gaussian 88(TM) system (copyright 1988, Gaussian, Inc.),
 the Gaussian 86(TM) system (copyright 1986, Carnegie Mellon
 University), and the Gaussian 82(TM) system (copyright 1983,
 Carnegie Mellon University). Gaussian is a federally registered
 trademark of Gaussian, Inc.
  
 This software contains proprietary and confidential information,
 including trade secrets, belonging to Gaussian, Inc.
  
 This software is provided under written license and may be
 used, copied, transmitted, or stored only in accord with that
 written license.
  
 The following legend is applicable only to US Government
 contracts under FAR:
  
                    RESTRICTED RIGHTS LEGEND
  
 Use, reproduction and disclosure by the US Government is
 subject to restrictions as set forth in subparagraphs (a)
 and (c) of the Commercial Computer Software - Restricted
 Rights clause in FAR 52.227-19.
  
 Gaussian, Inc.
 340 Quinnipiac St., Bldg. 40, Wallingford CT 06492
  
  
 ---------------------------------------------------------------
 Warning -- This program may not be used in any manner that
 competes with the business of Gaussian, Inc. or will provide
 assistance to any competitor of Gaussian, Inc.  The licensee
 of this program is prohibited from giving any competitor of
 Gaussian, Inc. access to this program.  By using this program,
 the user acknowledges that Gaussian, Inc. is engaged in the
 business of creating and licensing software in the field of
 computational chemistry and represents and warrants to the
 licensee that it is not a competitor of Gaussian, Inc. and that
 it will not use this program in any manner prohibited above.
 ---------------------------------------------------------------
  

 Cite this work as:
 Gaussian 16, Revision C.01,
 M. J. Frisch, G. W. Trucks, H. B. Schlegel, G. E. Scuseria, 
 M. A. Robb, J. R. Cheeseman, G. Scalmani, V. Barone, 
 G. A. Petersson, H. Nakatsuji, X. Li, M. Caricato, A. V. Marenich, 
 J. Bloino, B. G. Janesko, R. Gomperts, B. Mennucci, H. P. Hratchian, 
 J. V. Ortiz, A. F. Izmaylov, J. L. Sonnenberg, D. Williams-Young, 
 F. Ding, F. Lipparini, F. Egidi, J. Goings, B. Peng, A. Petrone, 
 T. Henderson, D. Ranasinghe, V. G. Zakrzewski, J. Gao, N. Rega, 
 G. Zheng, W. Liang, M. Hada, M. Ehara, K. Toyota, R. Fukuda, 
 J. Hasegawa, M. Ishida, T. Nakajima, Y. Honda, O. Kitao, H. Nakai, 
 T. Vreven, K. Throssell, J. A. Montgomery, Jr., J. E. Peralta, 
 F. Ogliaro, M. J. Bearpark, J. J. Heyd, E. N. Brothers, K. N. Kudin, 
 V. N. Staroverov, T. A. Keith, R. Kobayashi, J. Normand, 
 K. Raghavachari, A. P. Rendell, J. C. Burant, S. S. Iyengar, 
 J. Tomasi, M. Cossi, J. M. Millam, M. Klene, C. Adamo, R. Cammi, 
 J. W. Ochterski, R. L. Martin, K. Morokuma, O. Farkas, 
 J. B. Foresman, and D. J. Fox, Gaussian, Inc., Wallingford CT, 2019.
 
 ******************************************
 Gaussian 16:  ES64L-G16RevC.01  3-Jul-2019
                23-Jan-2025 
 ******************************************
 %nprocshared=24
 Will use up to   24 processors via shared memory.
 %mem=24GB
 %chk=neutral.chk
 -------------------------------------------------------------------
 #p opt freq=noraman def2svp pbe1pbe em=gd3bj integral=ultrafinegrid
 -------------------------------------------------------------------
 1/18=20,19=15,26=4,38=1/1,3;
 2/9=110,12=2,17=6,18=5,40=1/2;
 3/5=43,7=101,11=2,25=1,30=1,71=1,74=-13,75=-5,124=41/1,2,3;
 4//1;
 5/5=2,38=5/2;
 6/7=2,8=2,9=2,10=2,28=1/1;
 7//1,2,3,16;
 1/18=20,19=15,26=4/3(2);
 2/9=110/2;
 99//99;
 2/9=110/2;
 3/5=43,7=101,11=2,25=1,30=1,71=1,74=-13,75=-5,124=41/1,2,3;
 4/5=5,16=3,69=1/1;
 5/5=2,38=5/2;
 7//1,2,3,16;
 1/18=20,19=15,26=4/3(-5);
 2/9=110/2;
 6/7=2,8=2,9=2,10=2,19=2,28=1/1;
 99/9=1/99;
 Leave Link    1 at Thu Jan 23 18:21:54 2025, MaxMem=  3221225472 cpu:               1.2 elap:               0.1
 (Enter /software/gaussian/G16-C.01/avx2/g16/l101.exe)
 -------
 neutral
 -------
 Symbolic Z-matrix:
 Charge =  0 Multiplicity = 1
 C                     0.14814   2.26098  -1.21327 
 C                     0.27158   0.72058  -1.14578 
 C                     0.57121   0.17958  -2.56959 
 B                     1.56196   0.2797   -0.2739 
 C                     2.5785    1.14505   0.5253 
 C                     3.95715   0.96072  -0.11981 
 C                     4.42009  -0.52568  -0.13686 
 C                     3.28906  -1.5109   -0.51262 
 C                     1.93782  -1.16555   0.17309 
 C                     2.11461  -0.98312   1.69846 
 C                     2.51424   0.51563   1.92785 
 N                    -0.99239   0.11452  -0.56315 
 C                    -1.27986   0.53816   0.8249 
 C                    -1.87205  -0.58607   1.67783 
 C                    -3.38535  -0.49458   1.95566 
 C                    -4.29825   0.01554   0.84746 
 C                    -4.36925  -0.89295  -0.40776 
 C                    -3.07713  -1.08904  -1.20624 
 C                    -2.19127   0.18675  -1.41058 
 H                     1.05031   2.7032   -1.67537 
 H                     0.01602   2.71123  -0.22394 
 H                    -0.74343   2.56556  -1.82314 
 H                     0.3828   -0.91592  -2.599 
 H                     1.60036   0.37585  -2.85829 
 H                    -0.06331   0.67917  -3.37045 
 H                     2.30675   2.23884   0.58239 
 H                     3.92844   1.3417   -1.16694 
 H                     4.72146   1.59119   0.41802 
 H                     5.24515  -0.62804  -0.87928 
 H                     4.85383  -0.78151   0.84739 
 H                     3.60458  -2.52429  -0.20164 
 H                     3.14598  -1.5364   -1.61673 
 H                     1.16184  -1.91062  -0.0643 
 H                     1.14144  -1.19429   2.20779 
 H                     2.86548  -1.68263   2.11832 
 H                     1.7631    1.0247    2.56156 
 H                     3.49914   0.56597   2.43642 
 H                    -0.36517   0.88751   1.38831 
 H                    -1.91879   1.47042   0.85165 
 H                    -1.36772  -0.60101   2.66834 
 H                    -1.62569  -1.585     1.2362 
 H                    -3.7625   -1.48213   2.32466 
 H                    -3.5259    0.19295   2.83363 
 H                    -5.32521   0.05747   1.2558 
 H                    -4.06644   1.0718    0.55862 
 H                    -4.75272  -1.87919  -0.11827 
 H                    -5.11759  -0.4355   -1.09103 
 H                    -3.36001  -1.47427  -2.21433 
 H                    -2.47829  -1.90415  -0.7895 
 H                    -1.96831   0.21432  -2.47347 
 H                    -2.76512   1.12161  -1.24587 
 
 ITRead=  0  0  0  0  0  0  0  0  0  0  0  0  0  0  0  0  0  0  0  0
 ITRead=  0  0  0  0  0  0  0  0  0  0  0  0  0  0  0  0  0  0  0  0
 ITRead=  0  0  0  0  0  0  0  0  0  0  0
 MicOpt= -1 -1 -1 -1 -1 -1 -1 -1 -1 -1 -1 -1 -1 -1 -1 -1 -1 -1 -1 -1
 MicOpt= -1 -1 -1 -1 -1 -1 -1 -1 -1 -1 -1 -1 -1 -1 -1 -1 -1 -1 -1 -1
 MicOpt= -1 -1 -1 -1 -1 -1 -1 -1 -1 -1 -1
 NAtoms=     51 NQM=       51 NQMF=       0 NMMI=      0 NMMIF=      0
                NMic=       0 NMicF=      0.
                    Isotopes and Nuclear Properties:
 (Nuclear quadrupole moments (NQMom) in fm**2, nuclear magnetic moments (NMagM)
  in nuclear magnetons)

  Atom         1           2           3           4           5           6           7           8           9          10
 IAtWgt=          12          12          12          11          12          12          12          12          12          12
 AtmWgt=  12.0000000  12.0000000  12.0000000  11.0093053  12.0000000  12.0000000  12.0000000  12.0000000  12.0000000  12.0000000
 NucSpn=           0           0           0           3           0           0           0           0           0           0
 AtZEff=  -0.0000000  -0.0000000  -0.0000000  -0.0000000  -0.0000000  -0.0000000  -0.0000000  -0.0000000  -0.0000000  -0.0000000
 NQMom=    0.0000000   0.0000000   0.0000000   4.0590000   0.0000000   0.0000000   0.0000000   0.0000000   0.0000000   0.0000000
 NMagM=    0.0000000   0.0000000   0.0000000   2.6886370   0.0000000   0.0000000   0.0000000   0.0000000   0.0000000   0.0000000
 AtZNuc=   6.0000000   6.0000000   6.0000000   5.0000000   6.0000000   6.0000000   6.0000000   6.0000000   6.0000000   6.0000000

  Atom        11          12          13          14          15          16          17          18          19          20
 IAtWgt=          12          14          12          12          12          12          12          12          12           1
 AtmWgt=  12.0000000  14.0030740  12.0000000  12.0000000  12.0000000  12.0000000  12.0000000  12.0000000  12.0000000   1.0078250
 NucSpn=           0           2           0           0           0           0           0           0           0           1
 AtZEff=  -0.0000000  -0.0000000  -0.0000000  -0.0000000  -0.0000000  -0.0000000  -0.0000000  -0.0000000  -0.0000000  -0.0000000
 NQMom=    0.0000000   2.0440000   0.0000000   0.0000000   0.0000000   0.0000000   0.0000000   0.0000000   0.0000000   0.0000000
 NMagM=    0.0000000   0.4037610   0.0000000   0.0000000   0.0000000   0.0000000   0.0000000   0.0000000   0.0000000   2.7928460
 AtZNuc=   6.0000000   7.0000000   6.0000000   6.0000000   6.0000000   6.0000000   6.0000000   6.0000000   6.0000000   1.0000000

  Atom        21          22          23          24          25          26          27          28          29          30
 IAtWgt=           1           1           1           1           1           1           1           1           1           1
 AtmWgt=   1.0078250   1.0078250   1.0078250   1.0078250   1.0078250   1.0078250   1.0078250   1.0078250   1.0078250   1.0078250
 NucSpn=           1           1           1           1           1           1           1           1           1           1
 AtZEff=  -0.0000000  -0.0000000  -0.0000000  -0.0000000  -0.0000000  -0.0000000  -0.0000000  -0.0000000  -0.0000000  -0.0000000
 NQMom=    0.0000000   0.0000000   0.0000000   0.0000000   0.0000000   0.0000000   0.0000000   0.0000000   0.0000000   0.0000000
 NMagM=    2.7928460   2.7928460   2.7928460   2.7928460   2.7928460   2.7928460   2.7928460   2.7928460   2.7928460   2.7928460
 AtZNuc=   1.0000000   1.0000000   1.0000000   1.0000000   1.0000000   1.0000000   1.0000000   1.0000000   1.0000000   1.0000000

  Atom        31          32          33          34          35          36          37          38          39          40
 IAtWgt=           1           1           1           1           1           1           1           1           1           1
 AtmWgt=   1.0078250   1.0078250   1.0078250   1.0078250   1.0078250   1.0078250   1.0078250   1.0078250   1.0078250   1.0078250
 NucSpn=           1           1           1           1           1           1           1           1           1           1
 AtZEff=  -0.0000000  -0.0000000  -0.0000000  -0.0000000  -0.0000000  -0.0000000  -0.0000000  -0.0000000  -0.0000000  -0.0000000
 NQMom=    0.0000000   0.0000000   0.0000000   0.0000000   0.0000000   0.0000000   0.0000000   0.0000000   0.0000000   0.0000000
 NMagM=    2.7928460   2.7928460   2.7928460   2.7928460   2.7928460   2.7928460   2.7928460   2.7928460   2.7928460   2.7928460
 AtZNuc=   1.0000000   1.0000000   1.0000000   1.0000000   1.0000000   1.0000000   1.0000000   1.0000000   1.0000000   1.0000000

  Atom        41          42          43          44          45          46          47          48          49          50
 IAtWgt=           1           1           1           1           1           1           1           1           1           1
 AtmWgt=   1.0078250   1.0078250   1.0078250   1.0078250   1.0078250   1.0078250   1.0078250   1.0078250   1.0078250   1.0078250
 NucSpn=           1           1           1           1           1           1           1           1           1           1
 AtZEff=  -0.0000000  -0.0000000  -0.0000000  -0.0000000  -0.0000000  -0.0000000  -0.0000000  -0.0000000  -0.0000000  -0.0000000
 NQMom=    0.0000000   0.0000000   0.0000000   0.0000000   0.0000000   0.0000000   0.0000000   0.0000000   0.0000000   0.0000000
 NMagM=    2.7928460   2.7928460   2.7928460   2.7928460   2.7928460   2.7928460   2.7928460   2.7928460   2.7928460   2.7928460
 AtZNuc=   1.0000000   1.0000000   1.0000000   1.0000000   1.0000000   1.0000000   1.0000000   1.0000000   1.0000000   1.0000000

  Atom        51
 IAtWgt=           1
 AtmWgt=   1.0078250
 NucSpn=           1
 AtZEff=  -0.0000000
 NQMom=    0.0000000
 NMagM=    2.7928460
 AtZNuc=   1.0000000
 Leave Link  101 at Thu Jan 23 18:21:55 2025, MaxMem=  3221225472 cpu:              20.7 elap:               0.9
 (Enter /software/gaussian/G16-C.01/avx2/g16/l103.exe)

 GradGradGradGradGradGradGradGradGradGradGradGradGradGradGradGradGradGrad
 Berny optimization.
 Initialization pass.
                           ----------------------------
                           !    Initial Parameters    !
                           ! (Angstroms and Degrees)  !
 --------------------------                            --------------------------
 ! Name  Definition              Value          Derivative Info.                !
 --------------------------------------------------------------------------------
 ! R1    R(1,2)                  1.5468         estimate D2E/DX2                !
 ! R2    R(1,20)                 1.1059         estimate D2E/DX2                !
 ! R3    R(1,21)                 1.095          estimate D2E/DX2                !
 ! R4    R(1,22)                 1.1223         estimate D2E/DX2                !
 ! R5    R(2,3)                  1.5523         estimate D2E/DX2                !
 ! R6    R(2,4)                  1.6185         estimate D2E/DX2                !
 ! R7    R(2,12)                 1.518          estimate D2E/DX2                !
 ! R8    R(3,23)                 1.112          estimate D2E/DX2                !
 ! R9    R(3,24)                 1.0867         estimate D2E/DX2                !
 ! R10   R(3,25)                 1.1374         estimate D2E/DX2                !
 ! R11   R(4,5)                  1.5559         estimate D2E/DX2                !
 ! R12   R(4,9)                  1.5588         estimate D2E/DX2                !
 ! R13   R(5,6)                  1.5332         estimate D2E/DX2                !
 ! R14   R(5,11)                 1.5387         estimate D2E/DX2                !
 ! R15   R(5,26)                 1.1285         estimate D2E/DX2                !
 ! R16   R(6,7)                  1.5569         estimate D2E/DX2                !
 ! R17   R(6,27)                 1.1147         estimate D2E/DX2                !
 ! R18   R(6,28)                 1.1274         estimate D2E/DX2                !
 ! R19   R(7,8)                  1.5463         estimate D2E/DX2                !
 ! R20   R(7,29)                 1.1146         estimate D2E/DX2                !
 ! R21   R(7,30)                 1.1056         estimate D2E/DX2                !
 ! R22   R(8,9)                  1.5541         estimate D2E/DX2                !
 ! R23   R(8,31)                 1.106          estimate D2E/DX2                !
 ! R24   R(8,32)                 1.1136         estimate D2E/DX2                !
 ! R25   R(9,10)                 1.5464         estimate D2E/DX2                !
 ! R26   R(9,33)                 1.1017         estimate D2E/DX2                !
 ! R27   R(10,11)                1.568          estimate D2E/DX2                !
 ! R28   R(10,34)                1.1185         estimate D2E/DX2                !
 ! R29   R(10,35)                1.1088         estimate D2E/DX2                !
 ! R30   R(11,36)                1.1068         estimate D2E/DX2                !
 ! R31   R(11,37)                1.1096         estimate D2E/DX2                !
 ! R32   R(12,13)                1.4795         estimate D2E/DX2                !
 ! R33   R(12,19)                1.4699         estimate D2E/DX2                !
 ! R34   R(13,14)                1.5304         estimate D2E/DX2                !
 ! R35   R(13,38)                1.1297         estimate D2E/DX2                !
 ! R36   R(13,39)                1.1305         estimate D2E/DX2                !
 ! R37   R(14,15)                1.5413         estimate D2E/DX2                !
 ! R38   R(14,40)                1.1116         estimate D2E/DX2                !
 ! R39   R(14,41)                1.1196         estimate D2E/DX2                !
 ! R40   R(15,16)                1.5237         estimate D2E/DX2                !
 ! R41   R(15,42)                1.1197         estimate D2E/DX2                !
 ! R42   R(15,43)                1.124          estimate D2E/DX2                !
 ! R43   R(16,17)                1.5511         estimate D2E/DX2                !
 ! R44   R(16,44)                1.106          estimate D2E/DX2                !
 ! R45   R(16,45)                1.1193         estimate D2E/DX2                !
 ! R46   R(17,18)                1.5315         estimate D2E/DX2                !
 ! R47   R(17,46)                1.097          estimate D2E/DX2                !
 ! R48   R(17,47)                1.1118         estimate D2E/DX2                !
 ! R49   R(18,19)                1.5666         estimate D2E/DX2                !
 ! R50   R(18,48)                1.1156         estimate D2E/DX2                !
 ! R51   R(18,49)                1.0939         estimate D2E/DX2                !
 ! R52   R(19,50)                1.0864         estimate D2E/DX2                !
 ! R53   R(19,51)                1.1092         estimate D2E/DX2                !
 ! A1    A(2,1,20)             110.5692         estimate D2E/DX2                !
 ! A2    A(2,1,21)             112.315          estimate D2E/DX2                !
 ! A3    A(2,1,22)             110.9386         estimate D2E/DX2                !
 ! A4    A(20,1,21)            108.1522         estimate D2E/DX2                !
 ! A5    A(20,1,22)            108.2087         estimate D2E/DX2                !
 ! A6    A(21,1,22)            106.4713         estimate D2E/DX2                !
 ! A7    A(1,2,3)              108.8111         estimate D2E/DX2                !
 ! A8    A(1,2,4)              111.0017         estimate D2E/DX2                !
 ! A9    A(1,2,12)             110.3579         estimate D2E/DX2                !
 ! A10   A(3,2,4)              104.1981         estimate D2E/DX2                !
 ! A11   A(3,2,12)             111.9385         estimate D2E/DX2                !
 ! A12   A(4,2,12)             110.385          estimate D2E/DX2                !
 ! A13   A(2,3,23)             109.5665         estimate D2E/DX2                !
 ! A14   A(2,3,24)             111.3157         estimate D2E/DX2                !
 ! A15   A(2,3,25)             112.6485         estimate D2E/DX2                !
 ! A16   A(23,3,24)            109.3517         estimate D2E/DX2                !
 ! A17   A(23,3,25)            108.6385         estimate D2E/DX2                !
 ! A18   A(24,3,25)            105.1849         estimate D2E/DX2                !
 ! A19   A(2,4,5)              130.2466         estimate D2E/DX2                !
 ! A20   A(2,4,9)              126.8171         estimate D2E/DX2                !
 ! A21   A(5,4,9)              102.1707         estimate D2E/DX2                !
 ! A22   A(4,5,6)              107.727          estimate D2E/DX2                !
 ! A23   A(4,5,11)             102.3229         estimate D2E/DX2                !
 ! A24   A(4,5,26)             114.0613         estimate D2E/DX2                !
 ! A25   A(6,5,11)             111.8334         estimate D2E/DX2                !
 ! A26   A(6,5,26)             110.7533         estimate D2E/DX2                !
 ! A27   A(11,5,26)            109.8962         estimate D2E/DX2                !
 ! A28   A(5,6,7)              112.7523         estimate D2E/DX2                !
 ! A29   A(5,6,27)             109.3304         estimate D2E/DX2                !
 ! A30   A(5,6,28)             109.9772         estimate D2E/DX2                !
 ! A31   A(7,6,27)             108.8857         estimate D2E/DX2                !
 ! A32   A(7,6,28)             109.7281         estimate D2E/DX2                !
 ! A33   A(27,6,28)            105.9316         estimate D2E/DX2                !
 ! A34   A(6,7,8)              113.1699         estimate D2E/DX2                !
 ! A35   A(6,7,29)             108.365          estimate D2E/DX2                !
 ! A36   A(6,7,30)             109.1362         estimate D2E/DX2                !
 ! A37   A(8,7,29)             108.7267         estimate D2E/DX2                !
 ! A38   A(8,7,30)             110.8459         estimate D2E/DX2                !
 ! A39   A(29,7,30)            106.3389         estimate D2E/DX2                !
 ! A40   A(7,8,9)              112.7775         estimate D2E/DX2                !
 ! A41   A(7,8,31)             107.8668         estimate D2E/DX2                !
 ! A42   A(7,8,32)             110.4557         estimate D2E/DX2                !
 ! A43   A(9,8,31)             109.1223         estimate D2E/DX2                !
 ! A44   A(9,8,32)             109.3193         estimate D2E/DX2                !
 ! A45   A(31,8,32)            107.1239         estimate D2E/DX2                !
 ! A46   A(4,9,8)              106.8071         estimate D2E/DX2                !
 ! A47   A(4,9,10)             101.5983         estimate D2E/DX2                !
 ! A48   A(4,9,33)             113.2927         estimate D2E/DX2                !
 ! A49   A(8,9,10)             111.2254         estimate D2E/DX2                !
 ! A50   A(8,9,33)             111.5341         estimate D2E/DX2                !
 ! A51   A(10,9,33)            111.8933         estimate D2E/DX2                !
 ! A52   A(9,10,11)            106.6311         estimate D2E/DX2                !
 ! A53   A(9,10,34)            109.1127         estimate D2E/DX2                !
 ! A54   A(9,10,35)            112.1182         estimate D2E/DX2                !
 ! A55   A(11,10,34)           109.6084         estimate D2E/DX2                !
 ! A56   A(11,10,35)           112.0262         estimate D2E/DX2                !
 ! A57   A(34,10,35)           107.3179         estimate D2E/DX2                !
 ! A58   A(5,11,10)            105.5629         estimate D2E/DX2                !
 ! A59   A(5,11,36)            111.2299         estimate D2E/DX2                !
 ! A60   A(5,11,37)            111.233          estimate D2E/DX2                !
 ! A61   A(10,11,36)           110.5145         estimate D2E/DX2                !
 ! A62   A(10,11,37)           109.6728         estimate D2E/DX2                !
 ! A63   A(36,11,37)           108.609          estimate D2E/DX2                !
 ! A64   A(2,12,13)            114.0515         estimate D2E/DX2                !
 ! A65   A(2,12,19)            115.9905         estimate D2E/DX2                !
 ! A66   A(13,12,19)           111.6135         estimate D2E/DX2                !
 ! A67   A(12,13,14)           112.8135         estimate D2E/DX2                !
 ! A68   A(12,13,38)           113.5252         estimate D2E/DX2                !
 ! A69   A(12,13,39)           111.602          estimate D2E/DX2                !
 ! A70   A(14,13,38)           105.22           estimate D2E/DX2                !
 ! A71   A(14,13,39)           111.9561         estimate D2E/DX2                !
 ! A72   A(38,13,39)           100.9993         estimate D2E/DX2                !
 ! A73   A(13,14,15)           115.8987         estimate D2E/DX2                !
 ! A74   A(13,14,40)           109.3253         estimate D2E/DX2                !
 ! A75   A(13,14,41)           110.5136         estimate D2E/DX2                !
 ! A76   A(15,14,40)           106.5965         estimate D2E/DX2                !
 ! A77   A(15,14,41)           109.8825         estimate D2E/DX2                !
 ! A78   A(40,14,41)           103.8657         estimate D2E/DX2                !
 ! A79   A(14,15,16)           118.49           estimate D2E/DX2                !
 ! A80   A(14,15,42)           109.7413         estimate D2E/DX2                !
 ! A81   A(14,15,43)           107.4513         estimate D2E/DX2                !
 ! A82   A(16,15,42)           109.4608         estimate D2E/DX2                !
 ! A83   A(16,15,43)           106.7632         estimate D2E/DX2                !
 ! A84   A(42,15,43)           103.8845         estimate D2E/DX2                !
 ! A85   A(15,16,17)           114.8282         estimate D2E/DX2                !
 ! A86   A(15,16,44)           107.4867         estimate D2E/DX2                !
 ! A87   A(15,16,45)           112.3048         estimate D2E/DX2                !
 ! A88   A(17,16,44)           106.1692         estimate D2E/DX2                !
 ! A89   A(17,16,45)           110.6934         estimate D2E/DX2                !
 ! A90   A(44,16,45)           104.5848         estimate D2E/DX2                !
 ! A91   A(16,17,18)           117.2754         estimate D2E/DX2                !
 ! A92   A(16,17,46)           109.2087         estimate D2E/DX2                !
 ! A93   A(16,17,47)           106.6876         estimate D2E/DX2                !
 ! A94   A(18,17,46)           108.5041         estimate D2E/DX2                !
 ! A95   A(18,17,47)           107.4655         estimate D2E/DX2                !
 ! A96   A(46,17,47)           107.2642         estimate D2E/DX2                !
 ! A97   A(17,18,19)           116.156          estimate D2E/DX2                !
 ! A98   A(17,18,48)           107.541          estimate D2E/DX2                !
 ! A99   A(17,18,49)           111.0161         estimate D2E/DX2                !
 ! A100  A(19,18,48)           107.862          estimate D2E/DX2                !
 ! A101  A(19,18,49)           110.3011         estimate D2E/DX2                !
 ! A102  A(48,18,49)           103.0461         estimate D2E/DX2                !
 ! A103  A(12,19,18)           110.2421         estimate D2E/DX2                !
 ! A104  A(12,19,50)           113.4478         estimate D2E/DX2                !
 ! A105  A(12,19,51)           112.1949         estimate D2E/DX2                !
 ! A106  A(18,19,50)           105.3275         estimate D2E/DX2                !
 ! A107  A(18,19,51)           111.9905         estimate D2E/DX2                !
 ! A108  A(50,19,51)           103.3009         estimate D2E/DX2                !
 ! D1    D(20,1,2,3)           -54.4991         estimate D2E/DX2                !
 ! D2    D(20,1,2,4)            59.6006         estimate D2E/DX2                !
 ! D3    D(20,1,2,12)         -177.6872         estimate D2E/DX2                !
 ! D4    D(21,1,2,3)          -175.4107         estimate D2E/DX2                !
 ! D5    D(21,1,2,4)           -61.311          estimate D2E/DX2                !
 ! D6    D(21,1,2,12)           61.4012         estimate D2E/DX2                !
 ! D7    D(22,1,2,3)            65.5634         estimate D2E/DX2                !
 ! D8    D(22,1,2,4)           179.6631         estimate D2E/DX2                !
 ! D9    D(22,1,2,12)          -57.6247         estimate D2E/DX2                !
 ! D10   D(1,2,3,23)          -164.25           estimate D2E/DX2                !
 ! D11   D(1,2,3,24)            74.6734         estimate D2E/DX2                !
 ! D12   D(1,2,3,25)           -43.1972         estimate D2E/DX2                !
 ! D13   D(4,2,3,23)            77.2778         estimate D2E/DX2                !
 ! D14   D(4,2,3,24)           -43.7988         estimate D2E/DX2                !
 ! D15   D(4,2,3,25)          -161.6694         estimate D2E/DX2                !
 ! D16   D(12,2,3,23)          -42.0139         estimate D2E/DX2                !
 ! D17   D(12,2,3,24)         -163.0905         estimate D2E/DX2                !
 ! D18   D(12,2,3,25)           79.0389         estimate D2E/DX2                !
 ! D19   D(1,2,4,5)              3.9721         estimate D2E/DX2                !
 ! D20   D(1,2,4,9)            172.1128         estimate D2E/DX2                !
 ! D21   D(3,2,4,5)            120.9344         estimate D2E/DX2                !
 ! D22   D(3,2,4,9)            -70.9249         estimate D2E/DX2                !
 ! D23   D(12,2,4,5)          -118.7245         estimate D2E/DX2                !
 ! D24   D(12,2,4,9)            49.4162         estimate D2E/DX2                !
 ! D25   D(1,2,12,13)          -62.0315         estimate D2E/DX2                !
 ! D26   D(1,2,12,19)           69.7533         estimate D2E/DX2                !
 ! D27   D(3,2,12,13)          176.6203         estimate D2E/DX2                !
 ! D28   D(3,2,12,19)          -51.5949         estimate D2E/DX2                !
 ! D29   D(4,2,12,13)           61.0409         estimate D2E/DX2                !
 ! D30   D(4,2,12,19)         -167.1743         estimate D2E/DX2                !
 ! D31   D(2,4,5,6)           -116.6626         estimate D2E/DX2                !
 ! D32   D(2,4,5,11)           125.3364         estimate D2E/DX2                !
 ! D33   D(2,4,5,26)             6.7141         estimate D2E/DX2                !
 ! D34   D(9,4,5,6)             73.0266         estimate D2E/DX2                !
 ! D35   D(9,4,5,11)           -44.9744         estimate D2E/DX2                !
 ! D36   D(9,4,5,26)          -163.5967         estimate D2E/DX2                !
 ! D37   D(2,4,9,8)            116.5669         estimate D2E/DX2                !
 ! D38   D(2,4,9,10)          -126.8132         estimate D2E/DX2                !
 ! D39   D(2,4,9,33)            -6.6286         estimate D2E/DX2                !
 ! D40   D(5,4,9,8)            -72.6671         estimate D2E/DX2                !
 ! D41   D(5,4,9,10)            43.9528         estimate D2E/DX2                !
 ! D42   D(5,4,9,33)           164.1374         estimate D2E/DX2                !
 ! D43   D(4,5,6,7)            -58.4136         estimate D2E/DX2                !
 ! D44   D(4,5,6,27)            62.8567         estimate D2E/DX2                !
 ! D45   D(4,5,6,28)           178.7713         estimate D2E/DX2                !
 ! D46   D(11,5,6,7)            53.2678         estimate D2E/DX2                !
 ! D47   D(11,5,6,27)          174.5381         estimate D2E/DX2                !
 ! D48   D(11,5,6,28)          -69.5473         estimate D2E/DX2                !
 ! D49   D(26,5,6,7)           176.2154         estimate D2E/DX2                !
 ! D50   D(26,5,6,27)          -62.5143         estimate D2E/DX2                !
 ! D51   D(26,5,6,28)           53.4003         estimate D2E/DX2                !
 ! D52   D(4,5,11,10)           28.059          estimate D2E/DX2                !
 ! D53   D(4,5,11,36)          -91.8392         estimate D2E/DX2                !
 ! D54   D(4,5,11,37)          146.9484         estimate D2E/DX2                !
 ! D55   D(6,5,11,10)          -86.9822         estimate D2E/DX2                !
 ! D56   D(6,5,11,36)          153.1196         estimate D2E/DX2                !
 ! D57   D(6,5,11,37)           31.9072         estimate D2E/DX2                !
 ! D58   D(26,5,11,10)         149.5849         estimate D2E/DX2                !
 ! D59   D(26,5,11,36)          29.6867         estimate D2E/DX2                !
 ! D60   D(26,5,11,37)         -91.5257         estimate D2E/DX2                !
 ! D61   D(5,6,7,8)             41.9012         estimate D2E/DX2                !
 ! D62   D(5,6,7,29)           162.5678         estimate D2E/DX2                !
 ! D63   D(5,6,7,30)           -82.0316         estimate D2E/DX2                !
 ! D64   D(27,6,7,8)           -79.6216         estimate D2E/DX2                !
 ! D65   D(27,6,7,29)           41.045          estimate D2E/DX2                !
 ! D66   D(27,6,7,30)          156.4456         estimate D2E/DX2                !
 ! D67   D(28,6,7,8)           164.8554         estimate D2E/DX2                !
 ! D68   D(28,6,7,29)          -74.478          estimate D2E/DX2                !
 ! D69   D(28,6,7,30)           40.9226         estimate D2E/DX2                !
 ! D70   D(6,7,8,9)            -42.2107         estimate D2E/DX2                !
 ! D71   D(6,7,8,31)          -162.7848         estimate D2E/DX2                !
 ! D72   D(6,7,8,32)            80.4447         estimate D2E/DX2                !
 ! D73   D(29,7,8,9)          -162.6719         estimate D2E/DX2                !
 ! D74   D(29,7,8,31)           76.754          estimate D2E/DX2                !
 ! D75   D(29,7,8,32)          -40.0164         estimate D2E/DX2                !
 ! D76   D(30,7,8,9)            80.781          estimate D2E/DX2                !
 ! D77   D(30,7,8,31)          -39.7931         estimate D2E/DX2                !
 ! D78   D(30,7,8,32)         -156.5636         estimate D2E/DX2                !
 ! D79   D(7,8,9,4)             58.8452         estimate D2E/DX2                !
 ! D80   D(7,8,9,10)           -51.1912         estimate D2E/DX2                !
 ! D81   D(7,8,9,33)          -176.8732         estimate D2E/DX2                !
 ! D82   D(31,8,9,4)           178.6981         estimate D2E/DX2                !
 ! D83   D(31,8,9,10)           68.6617         estimate D2E/DX2                !
 ! D84   D(31,8,9,33)          -57.0203         estimate D2E/DX2                !
 ! D85   D(32,8,9,4)           -64.4439         estimate D2E/DX2                !
 ! D86   D(32,8,9,10)         -174.4803         estimate D2E/DX2                !
 ! D87   D(32,8,9,33)           59.8376         estimate D2E/DX2                !
 ! D88   D(4,9,10,11)          -26.4491         estimate D2E/DX2                !
 ! D89   D(4,9,10,34)           91.8572         estimate D2E/DX2                !
 ! D90   D(4,9,10,35)         -149.3984         estimate D2E/DX2                !
 ! D91   D(8,9,10,11)           86.9024         estimate D2E/DX2                !
 ! D92   D(8,9,10,34)         -154.7913         estimate D2E/DX2                !
 ! D93   D(8,9,10,35)          -36.0469         estimate D2E/DX2                !
 ! D94   D(33,9,10,11)        -147.6155         estimate D2E/DX2                !
 ! D95   D(33,9,10,34)         -29.3093         estimate D2E/DX2                !
 ! D96   D(33,9,10,35)          89.4352         estimate D2E/DX2                !
 ! D97   D(9,10,11,5)           -0.9225         estimate D2E/DX2                !
 ! D98   D(9,10,11,36)         119.4456         estimate D2E/DX2                !
 ! D99   D(9,10,11,37)        -120.8445         estimate D2E/DX2                !
 ! D100  D(34,10,11,5)        -118.9031         estimate D2E/DX2                !
 ! D101  D(34,10,11,36)          1.465          estimate D2E/DX2                !
 ! D102  D(34,10,11,37)        121.1749         estimate D2E/DX2                !
 ! D103  D(35,10,11,5)         122.0843         estimate D2E/DX2                !
 ! D104  D(35,10,11,36)       -117.5475         estimate D2E/DX2                !
 ! D105  D(35,10,11,37)          2.1624         estimate D2E/DX2                !
 ! D106  D(2,12,13,14)        -142.9007         estimate D2E/DX2                !
 ! D107  D(2,12,13,38)         -23.3138         estimate D2E/DX2                !
 ! D108  D(2,12,13,39)          90.0265         estimate D2E/DX2                !
 ! D109  D(19,12,13,14)         83.2308         estimate D2E/DX2                !
 ! D110  D(19,12,13,38)       -157.1824         estimate D2E/DX2                !
 ! D111  D(19,12,13,39)        -43.8421         estimate D2E/DX2                !
 ! D112  D(2,12,19,18)         145.4274         estimate D2E/DX2                !
 ! D113  D(2,12,19,50)          27.5852         estimate D2E/DX2                !
 ! D114  D(2,12,19,51)         -89.0171         estimate D2E/DX2                !
 ! D115  D(13,12,19,18)        -81.6615         estimate D2E/DX2                !
 ! D116  D(13,12,19,50)        160.4964         estimate D2E/DX2                !
 ! D117  D(13,12,19,51)         43.894          estimate D2E/DX2                !
 ! D118  D(12,13,14,15)       -104.4946         estimate D2E/DX2                !
 ! D119  D(12,13,14,40)        135.0575         estimate D2E/DX2                !
 ! D120  D(12,13,14,41)         21.3316         estimate D2E/DX2                !
 ! D121  D(38,13,14,15)        131.2273         estimate D2E/DX2                !
 ! D122  D(38,13,14,40)         10.7794         estimate D2E/DX2                !
 ! D123  D(38,13,14,41)       -102.9466         estimate D2E/DX2                !
 ! D124  D(39,13,14,15)         22.3903         estimate D2E/DX2                !
 ! D125  D(39,13,14,40)        -98.0575         estimate D2E/DX2                !
 ! D126  D(39,13,14,41)        148.2165         estimate D2E/DX2                !
 ! D127  D(13,14,15,16)         37.4343         estimate D2E/DX2                !
 ! D128  D(13,14,15,42)        164.1256         estimate D2E/DX2                !
 ! D129  D(13,14,15,43)        -83.5368         estimate D2E/DX2                !
 ! D130  D(40,14,15,16)        159.3442         estimate D2E/DX2                !
 ! D131  D(40,14,15,42)        -73.9645         estimate D2E/DX2                !
 ! D132  D(40,14,15,43)         38.3732         estimate D2E/DX2                !
 ! D133  D(41,14,15,16)        -88.7116         estimate D2E/DX2                !
 ! D134  D(41,14,15,42)         37.9797         estimate D2E/DX2                !
 ! D135  D(41,14,15,43)        150.3174         estimate D2E/DX2                !
 ! D136  D(14,15,16,17)         65.0891         estimate D2E/DX2                !
 ! D137  D(14,15,16,44)       -177.0412         estimate D2E/DX2                !
 ! D138  D(14,15,16,45)        -62.5468         estimate D2E/DX2                !
 ! D139  D(42,15,16,17)        -61.7359         estimate D2E/DX2                !
 ! D140  D(42,15,16,44)         56.1338         estimate D2E/DX2                !
 ! D141  D(42,15,16,45)        170.6282         estimate D2E/DX2                !
 ! D142  D(43,15,16,17)       -173.5895         estimate D2E/DX2                !
 ! D143  D(43,15,16,44)        -55.7198         estimate D2E/DX2                !
 ! D144  D(43,15,16,45)         58.7747         estimate D2E/DX2                !
 ! D145  D(15,16,17,18)        -63.3698         estimate D2E/DX2                !
 ! D146  D(15,16,17,46)         60.5315         estimate D2E/DX2                !
 ! D147  D(15,16,17,47)        176.1601         estimate D2E/DX2                !
 ! D148  D(44,16,17,18)        178.0186         estimate D2E/DX2                !
 ! D149  D(44,16,17,46)        -58.0802         estimate D2E/DX2                !
 ! D150  D(44,16,17,47)         57.5485         estimate D2E/DX2                !
 ! D151  D(45,16,17,18)         65.0773         estimate D2E/DX2                !
 ! D152  D(45,16,17,46)       -171.0215         estimate D2E/DX2                !
 ! D153  D(45,16,17,47)        -55.3928         estimate D2E/DX2                !
 ! D154  D(16,17,18,19)        -41.3027         estimate D2E/DX2                !
 ! D155  D(16,17,18,48)       -162.2076         estimate D2E/DX2                !
 ! D156  D(16,17,18,49)         85.765          estimate D2E/DX2                !
 ! D157  D(46,17,18,19)       -165.5596         estimate D2E/DX2                !
 ! D158  D(46,17,18,48)         73.5354         estimate D2E/DX2                !
 ! D159  D(46,17,18,49)        -38.492          estimate D2E/DX2                !
 ! D160  D(47,17,18,19)         78.7578         estimate D2E/DX2                !
 ! D161  D(47,17,18,48)        -42.1471         estimate D2E/DX2                !
 ! D162  D(47,17,18,49)       -154.1745         estimate D2E/DX2                !
 ! D163  D(17,18,19,12)        106.651          estimate D2E/DX2                !
 ! D164  D(17,18,19,50)       -130.6096         estimate D2E/DX2                !
 ! D165  D(17,18,19,51)        -19.0203         estimate D2E/DX2                !
 ! D166  D(48,18,19,12)       -132.6159         estimate D2E/DX2                !
 ! D167  D(48,18,19,50)         -9.8764         estimate D2E/DX2                !
 ! D168  D(48,18,19,51)        101.7129         estimate D2E/DX2                !
 ! D169  D(49,18,19,12)        -20.7713         estimate D2E/DX2                !
 ! D170  D(49,18,19,50)        101.9681         estimate D2E/DX2                !
 ! D171  D(49,18,19,51)       -146.4426         estimate D2E/DX2                !
 --------------------------------------------------------------------------------
 Trust Radius=3.00D-01 FncErr=1.00D-07 GrdErr=1.00D-06 EigMax=2.50D+02 EigMin=1.00D-04
 Number of steps in this run=    306 maximum allowed number of steps=    306.
 GradGradGradGradGradGradGradGradGradGradGradGradGradGradGradGradGradGrad

 Leave Link  103 at Thu Jan 23 18:21:55 2025, MaxMem=  3221225472 cpu:               0.4 elap:               0.0
 (Enter /software/gaussian/G16-C.01/avx2/g16/l202.exe)
 Stoichiometry    C17H32BN
 Framework group  C1[X(C17H32BN)]
 Deg. of freedom   147
 Full point group                 C1      NOp   1
 Largest Abelian subgroup         C1      NOp   1
 Largest concise Abelian subgroup C1      NOp   1
                         Standard orientation:                         
 ---------------------------------------------------------------------
 Center     Atomic      Atomic             Coordinates (Angstroms)
 Number     Number       Type             X           Y           Z
 ---------------------------------------------------------------------
      1          6           0        0.221908    1.763648    1.868918
      2          6           0        0.268297    1.293161    0.396124
      3          6           0        0.550645    2.519692   -0.512502
      4          5           0        1.529093    0.311020    0.140357
      5          6           0        2.581718   -0.253909    1.137220
      6          6           0        3.953989    0.293188    0.726890
      7          6           0        4.342712   -0.088291   -0.731655
      8          6           0        3.166843    0.038923   -1.727753
      9          6           0        1.829652   -0.505772   -1.152831
     10          6           0        2.004630   -1.933499   -0.585146
     11          6           0        2.476522   -1.770716    0.901259
     12          7           0       -1.028230    0.597354    0.022925
     13          6           0       -1.304004   -0.625601    0.808492
     14          6           0       -1.957181   -1.731043   -0.024228
     15          6           0       -3.465981   -1.945347    0.206506
     16          6           0       -4.344685   -0.724497    0.449663
     17          6           0       -4.451921    0.250528   -0.751910
     18          6           0       -3.165575    0.944257   -1.209809
     19          6           0       -2.216102    1.457664   -0.074447
     20          1           0        1.148114    2.307429    2.132451
     21          1           0        0.105397    0.929336    2.568425
     22          1           0       -0.649174    2.449427    2.043646
     23          1           0        0.308320    2.265241   -1.567499
     24          1           0        1.590247    2.829302   -0.446409
     25          1           0       -0.052703    3.435707   -0.211721
     26          1           0        2.364175   -0.017534    2.219028
     27          1           0        3.951527    1.403872    0.820863
     28          1           0        4.744866   -0.075984    1.440438
     29          1           0        5.166843    0.585070   -1.063000
     30          1           0        4.756348   -1.113557   -0.740133
     31          1           0        3.429514   -0.532467   -2.637561
     32          1           0        3.030389    1.100525   -2.035265
     33          1           0        1.019338   -0.456264   -1.897528
     34          1           0        1.018645   -2.461014   -0.610317
     35          1           0        2.716915   -2.536444   -1.183894
     36          1           0        1.747161   -2.234248    1.592724
     37          1           0        3.459134   -2.267743    1.037783
     38          1           0       -0.377061   -1.095960    1.250842
     39          1           0       -1.896061   -0.394958    1.743547
     40          1           0       -1.461135   -2.700730    0.197873
     41          1           0       -1.757616   -1.571031   -1.114255
     42          1           0       -3.894234   -2.552293   -0.631273
     43          1           0       -3.578371   -2.609961    1.105911
     44          1           0       -5.371133   -1.087305    0.644446
     45          1           0       -4.058744   -0.174062    1.381384
     46          1           0       -4.885860   -0.279219   -1.608987
     47          1           0       -5.171851    1.044298   -0.455682
     48          1           0       -3.460177    1.821862   -1.832456
     49          1           0       -2.610840    0.317082   -1.913806
     50          1           0       -1.984640    2.486147   -0.336857
     51          1           0       -2.743991    1.554585    0.896290
 ---------------------------------------------------------------------
 Rotational constants (GHZ):           0.7158967           0.2267236           0.2066727
 Leave Link  202 at Thu Jan 23 18:21:55 2025, MaxMem=  3221225472 cpu:               0.9 elap:               0.0
 (Enter /software/gaussian/G16-C.01/avx2/g16/l301.exe)
 Standard basis: def2SVP (5D, 7F)
 Ernie: Thresh=  0.10000D-02 Tol=  0.10000D-05 Strict=F.
 There are   445 symmetry adapted cartesian basis functions of A   symmetry.
 There are   426 symmetry adapted basis functions of A   symmetry.
   426 basis functions,   699 primitive gaussians,   445 cartesian basis functions
    73 alpha electrons       73 beta electrons
       nuclear repulsion energy      1586.8439106992 Hartrees.
 IExCor= 1009 DFT=T Ex+Corr=PBE1PBE ExCW=0 ScaHFX=  0.250000
 ScaDFX=  0.750000  0.750000  1.000000  1.000000 ScalE2=  1.000000  1.000000
 IRadAn=      5 IRanWt=     -1 IRanGd=            0 ICorTp=0 IEmpDi=141
 NAtoms=   51 NActive=   51 NUniq=   51 SFac= 1.00D+00 NAtFMM=   60 NAOKFM=F Big=F
 Integral buffers will be    131072 words long.
 Raffenetti 2 integral format.
 Two-electron integral symmetry is turned on.
 R6Disp:  Grimme-D3(BJ) Dispersion energy=       -0.0581064453 Hartrees.
 Nuclear repulsion after empirical dispersion term =     1586.7858042540 Hartrees.
 Leave Link  301 at Thu Jan 23 18:21:55 2025, MaxMem=  3221225472 cpu:               1.9 elap:               0.1
 (Enter /software/gaussian/G16-C.01/avx2/g16/l302.exe)
 NPDir=0 NMtPBC=     1 NCelOv=     1 NCel=       1 NClECP=     1 NCelD=      1
         NCelK=      1 NCelE2=     1 NClLst=     1 CellRange=     0.0.
 One-electron integrals computed using PRISM.
 One-electron integral symmetry used in STVInt
   1 Symmetry operations used in ECPInt.
 ECPInt:  NShTT=   22155 NPrTT=   75809 LenC2=   20724 LenP2D=   51612.
 LDataN:  DoStor=T MaxTD1= 4 Len=   56
 NBasis=   426 RedAO= T EigKep=  5.86D-04  NBF=   426
 NBsUse=   426 1.00D-06 EigRej= -1.00D+00 NBFU=   426
 Precomputing XC quadrature grid using
 IXCGrd= 4 IRadAn=           5 IRanWt=          -1 IRanGd=           0 AccXCQ= 0.00D+00.
 Generated NRdTot=       0 NPtTot=           0 NUsed=           0 NTot=          32
 NSgBfM=   444   444   444   444   444 MxSgAt=    51 MxSgA2=    51.
 Leave Link  302 at Thu Jan 23 18:21:56 2025, MaxMem=  3221225472 cpu:              14.1 elap:               0.6
 (Enter /software/gaussian/G16-C.01/avx2/g16/l303.exe)
 DipDrv:  MaxL=1.
 Leave Link  303 at Thu Jan 23 18:21:56 2025, MaxMem=  3221225472 cpu:               2.2 elap:               0.1
 (Enter /software/gaussian/G16-C.01/avx2/g16/l401.exe)
 ExpMin= 8.36D-02 ExpMax= 1.71D+03 ExpMxC= 2.58D+02 IAcc=3 IRadAn=         5 AccDes= 0.00D+00
 Harris functional with IExCor= 1009 and IRadAn=       5 diagonalized for initial guess.
 HarFok:  IExCor= 1009 AccDes= 0.00D+00 IRadAn=         5 IDoV= 1 UseB2=F ITyADJ=14
 ICtDFT=  3500011 ScaDFX=  1.000000  1.000000  1.000000  1.000000
 FoFCou: FMM=F IPFlag=           0 FMFlag=      100000 FMFlg1=           0
         NFxFlg=           0 DoJE=T BraDBF=F KetDBF=T FulRan=T
         wScrn=  0.000000 ICntrl=       500 IOpCl=  0 I1Cent=   200000004 NGrid=           0
         NMat0=    1 NMatS0=      1 NMatT0=    0 NMatD0=    1 NMtDS0=    0 NMtDT0=    0
 Petite list used in FoFCou.
 Harris En= -745.554857358816    
 JPrj=0 DoOrth=F DoCkMO=F.
 Leave Link  401 at Thu Jan 23 18:21:58 2025, MaxMem=  3221225472 cpu:              37.1 elap:               1.6
 (Enter /software/gaussian/G16-C.01/avx2/g16/l502.exe)
 Integral symmetry usage will be decided dynamically.
 Closed shell SCF:
 Using DIIS extrapolation, IDIIS=  1040.
 NGot=  3221225472 LenX=  3220812516 LenY=  3220614046
 Requested convergence on RMS density matrix=1.00D-08 within 128 cycles.
 Requested convergence on MAX density matrix=1.00D-06.
 Requested convergence on             energy=1.00D-06.
 No special actions if energy rises.
 Fock matrices will be formed incrementally for  20 cycles.
 Integral accuracy reduced to 1.0D-05 until final iterations.

 Cycle   1  Pass 0  IDiag  1:
 FoFJK:  IHMeth= 1 ICntrl=       0 DoSepK=F KAlg= 0 I1Cent=           0 FoldK=F
 IRaf= 880000000 NMat=       1 IRICut=       1 DoRegI=T DoRafI=F ISym2E= 0 IDoP0=0 IntGTp=1.
 FoFCou: FMM=F IPFlag=           0 FMFlag=      100000 FMFlg1=           0
         NFxFlg=           0 DoJE=F BraDBF=F KetDBF=F FulRan=T
         wScrn=  0.000000 ICntrl=         0 IOpCl=  0 I1Cent=           0 NGrid=           0
         NMat0=    1 NMatS0=      1 NMatT0=    0 NMatD0=    1 NMtDS0=    0 NMtDT0=    0
 Symmetry not used in FoFCou.
 E= -744.745558667736    
 DIIS: error= 2.16D-02 at cycle   1 NSaved=   1.
 NSaved= 1 IEnMin= 1 EnMin= -744.745558667736     IErMin= 1 ErrMin= 2.16D-02
 ErrMax= 2.16D-02  0.00D+00 EMaxC= 1.00D-01 BMatC= 4.58D-01 BMatP= 4.58D-01
 IDIUse=3 WtCom= 7.84D-01 WtEn= 2.16D-01
 Coeff-Com:  0.100D+01
 Coeff-En:   0.100D+01
 Coeff:      0.100D+01
 Gap=     0.204 Goal=   None    Shift=    0.000
 GapD=    0.204 DampG=1.000 DampE=0.500 DampFc=0.5000 IDamp=-1.
 Damping current iteration by 5.00D-01
 RMSDP=4.52D-03 MaxDP=1.40D-01              OVMax= 1.58D-01

 Cycle   2  Pass 0  IDiag  1:
 RMSU=  2.21D-03    CP:  9.68D-01
 E= -744.967975484388     Delta-E=       -0.222416816652 Rises=F Damp=T
 DIIS: error= 5.23D-03 at cycle   2 NSaved=   2.
 NSaved= 2 IEnMin= 2 EnMin= -744.967975484388     IErMin= 2 ErrMin= 5.23D-03
 ErrMax= 5.23D-03  0.00D+00 EMaxC= 1.00D-01 BMatC= 2.96D-02 BMatP= 4.58D-01
 IDIUse=3 WtCom= 9.48D-01 WtEn= 5.23D-02
 Coeff-Com:  0.953D-01 0.905D+00
 Coeff-En:   0.156D+00 0.844D+00
 Coeff:      0.984D-01 0.902D+00
 Gap=     0.218 Goal=   None    Shift=    0.000
 RMSDP=1.49D-03 MaxDP=5.13D-02 DE=-2.22D-01 OVMax= 9.99D-02

 Cycle   3  Pass 0  IDiag  1:
 RMSU=  1.46D-03    CP:  9.58D-01  8.77D-01
 E= -745.266091306212     Delta-E=       -0.298115821824 Rises=F Damp=F
 DIIS: error= 4.13D-03 at cycle   3 NSaved=   3.
 NSaved= 3 IEnMin= 3 EnMin= -745.266091306212     IErMin= 3 ErrMin= 4.13D-03
 ErrMax= 4.13D-03  0.00D+00 EMaxC= 1.00D-01 BMatC= 8.09D-03 BMatP= 2.96D-02
 IDIUse=3 WtCom= 9.59D-01 WtEn= 4.13D-02
 Coeff-Com: -0.252D-02 0.318D+00 0.685D+00
 Coeff-En:   0.000D+00 0.000D+00 0.100D+01
 Coeff:     -0.241D-02 0.305D+00 0.698D+00
 Gap=     0.192 Goal=   None    Shift=    0.000
 RMSDP=4.73D-04 MaxDP=1.66D-02 DE=-2.98D-01 OVMax= 1.40D-02

 Cycle   4  Pass 0  IDiag  1:
 RMSU=  3.23D-04    CP:  9.58D-01  9.29D-01  7.77D-01
 E= -745.272500052806     Delta-E=       -0.006408746594 Rises=F Damp=F
 DIIS: error= 1.14D-03 at cycle   4 NSaved=   4.
 NSaved= 4 IEnMin= 4 EnMin= -745.272500052806     IErMin= 4 ErrMin= 1.14D-03
 ErrMax= 1.14D-03  0.00D+00 EMaxC= 1.00D-01 BMatC= 1.23D-03 BMatP= 8.09D-03
 IDIUse=3 WtCom= 9.89D-01 WtEn= 1.14D-02
 Coeff-Com: -0.679D-02 0.708D-01 0.311D+00 0.625D+00
 Coeff-En:   0.000D+00 0.000D+00 0.533D-01 0.947D+00
 Coeff:     -0.672D-02 0.700D-01 0.308D+00 0.629D+00
 Gap=     0.192 Goal=   None    Shift=    0.000
 RMSDP=1.30D-04 MaxDP=6.38D-03 DE=-6.41D-03 OVMax= 6.26D-03

 Cycle   5  Pass 0  IDiag  1:
 RMSU=  7.75D-05    CP:  9.58D-01  9.15D-01  8.16D-01  7.49D-01
 E= -745.273601623321     Delta-E=       -0.001101570515 Rises=F Damp=F
 DIIS: error= 3.48D-04 at cycle   5 NSaved=   5.
 NSaved= 5 IEnMin= 5 EnMin= -745.273601623321     IErMin= 5 ErrMin= 3.48D-04
 ErrMax= 3.48D-04  0.00D+00 EMaxC= 1.00D-01 BMatC= 1.31D-04 BMatP= 1.23D-03
 IDIUse=3 WtCom= 9.97D-01 WtEn= 3.48D-03
 Coeff-Com: -0.289D-02 0.564D-02 0.836D-01 0.309D+00 0.604D+00
 Coeff-En:   0.000D+00 0.000D+00 0.000D+00 0.129D-01 0.987D+00
 Coeff:     -0.288D-02 0.562D-02 0.833D-01 0.308D+00 0.606D+00
 Gap=     0.190 Goal=   None    Shift=    0.000
 RMSDP=3.50D-05 MaxDP=1.83D-03 DE=-1.10D-03 OVMax= 2.33D-03

 Cycle   6  Pass 0  IDiag  1:
 RMSU=  1.82D-05    CP:  9.58D-01  9.18D-01  8.20D-01  7.65D-01  6.37D-01
 E= -745.273726490276     Delta-E=       -0.000124866954 Rises=F Damp=F
 DIIS: error= 8.14D-05 at cycle   6 NSaved=   6.
 NSaved= 6 IEnMin= 6 EnMin= -745.273726490276     IErMin= 6 ErrMin= 8.14D-05
 ErrMax= 8.14D-05  0.00D+00 EMaxC= 1.00D-01 BMatC= 4.92D-06 BMatP= 1.31D-04
 IDIUse=1 WtCom= 1.00D+00 WtEn= 0.00D+00
 Coeff-Com: -0.106D-02 0.405D-03 0.282D-01 0.124D+00 0.290D+00 0.559D+00
 Coeff:     -0.106D-02 0.405D-03 0.282D-01 0.124D+00 0.290D+00 0.559D+00
 Gap=     0.191 Goal=   None    Shift=    0.000
 RMSDP=8.44D-06 MaxDP=4.92D-04 DE=-1.25D-04 OVMax= 6.48D-04

 Initial convergence to 1.0D-05 achieved.  Increase integral accuracy.
 Cycle   7  Pass 1  IDiag  1:
 E= -745.273786415542     Delta-E=       -0.000059925266 Rises=F Damp=F
 DIIS: error= 9.93D-05 at cycle   1 NSaved=   1.
 NSaved= 1 IEnMin= 1 EnMin= -745.273786415542     IErMin= 1 ErrMin= 9.93D-05
 ErrMax= 9.93D-05  0.00D+00 EMaxC= 1.00D-01 BMatC= 2.35D-06 BMatP= 2.35D-06
 IDIUse=1 WtCom= 1.00D+00 WtEn= 0.00D+00
 Coeff-Com:  0.100D+01
 Coeff:      0.100D+01
 Gap=     0.191 Goal=   None    Shift=    0.000
 RMSDP=8.44D-06 MaxDP=4.92D-04 DE=-5.99D-05 OVMax= 4.18D-04

 Cycle   8  Pass 1  IDiag  1:
 RMSU=  4.34D-05    CP:  1.00D+00
 E= -745.273788130802     Delta-E=       -0.000001715261 Rises=F Damp=F
 DIIS: error= 3.97D-05 at cycle   2 NSaved=   2.
 NSaved= 2 IEnMin= 2 EnMin= -745.273788130802     IErMin= 2 ErrMin= 3.97D-05
 ErrMax= 3.97D-05  0.00D+00 EMaxC= 1.00D-01 BMatC= 8.96D-07 BMatP= 2.35D-06
 IDIUse=1 WtCom= 1.00D+00 WtEn= 0.00D+00
 Coeff-Com:  0.335D+00 0.665D+00
 Coeff:      0.335D+00 0.665D+00
 Gap=     0.191 Goal=   None    Shift=    0.000
 RMSDP=5.29D-06 MaxDP=3.16D-04 DE=-1.72D-06 OVMax= 4.05D-04

 Cycle   9  Pass 1  IDiag  1:
 RMSU=  5.28D-06    CP:  1.00D+00  9.97D-01
 E= -745.273788556535     Delta-E=       -0.000000425733 Rises=F Damp=F
 DIIS: error= 2.94D-05 at cycle   3 NSaved=   3.
 NSaved= 3 IEnMin= 3 EnMin= -745.273788556535     IErMin= 3 ErrMin= 2.94D-05
 ErrMax= 2.94D-05  0.00D+00 EMaxC= 1.00D-01 BMatC= 4.44D-07 BMatP= 8.96D-07
 IDIUse=1 WtCom= 1.00D+00 WtEn= 0.00D+00
 Coeff-Com:  0.245D-03 0.412D+00 0.587D+00
 Coeff:      0.245D-03 0.412D+00 0.587D+00
 Gap=     0.191 Goal=   None    Shift=    0.000
 RMSDP=2.27D-06 MaxDP=1.40D-04 DE=-4.26D-07 OVMax= 1.81D-04

 Cycle  10  Pass 1  IDiag  1:
 RMSU=  5.23D-07    CP:  1.00D+00  1.01D+00  5.98D-01
 E= -745.273788954340     Delta-E=       -0.000000397804 Rises=F Damp=F
 DIIS: error= 2.22D-06 at cycle   4 NSaved=   4.
 NSaved= 4 IEnMin= 4 EnMin= -745.273788954340     IErMin= 4 ErrMin= 2.22D-06
 ErrMax= 2.22D-06  0.00D+00 EMaxC= 1.00D-01 BMatC= 5.42D-09 BMatP= 4.44D-07
 IDIUse=1 WtCom= 1.00D+00 WtEn= 0.00D+00
 Coeff-Com: -0.396D-02 0.205D+00 0.303D+00 0.496D+00
 Coeff:     -0.396D-02 0.205D+00 0.303D+00 0.496D+00
 Gap=     0.191 Goal=   None    Shift=    0.000
 RMSDP=2.33D-07 MaxDP=1.47D-05 DE=-3.98D-07 OVMax= 1.31D-05

 Cycle  11  Pass 1  IDiag  1:
 RMSU=  1.26D-07    CP:  1.00D+00  1.01D+00  6.05D-01  6.34D-01
 E= -745.273788959782     Delta-E=       -0.000000005442 Rises=F Damp=F
 DIIS: error= 3.53D-07 at cycle   5 NSaved=   5.
 NSaved= 5 IEnMin= 5 EnMin= -745.273788959782     IErMin= 5 ErrMin= 3.53D-07
 ErrMax= 3.53D-07  0.00D+00 EMaxC= 1.00D-01 BMatC= 9.66D-11 BMatP= 5.42D-09
 IDIUse=1 WtCom= 1.00D+00 WtEn= 0.00D+00
 Coeff-Com: -0.178D-02 0.784D-01 0.117D+00 0.218D+00 0.589D+00
 Coeff:     -0.178D-02 0.784D-01 0.117D+00 0.218D+00 0.589D+00
 Gap=     0.191 Goal=   None    Shift=    0.000
 RMSDP=4.30D-08 MaxDP=1.74D-06 DE=-5.44D-09 OVMax= 1.48D-06

 Cycle  12  Pass 1  IDiag  1:
 RMSU=  3.84D-08    CP:  1.00D+00  1.01D+00  6.04D-01  6.25D-01  8.59D-01
 E= -745.273788959884     Delta-E=       -0.000000000101 Rises=F Damp=F
 DIIS: error= 6.94D-08 at cycle   6 NSaved=   6.
 NSaved= 6 IEnMin= 6 EnMin= -745.273788959884     IErMin= 6 ErrMin= 6.94D-08
 ErrMax= 6.94D-08  0.00D+00 EMaxC= 1.00D-01 BMatC= 4.62D-12 BMatP= 9.66D-11
 IDIUse=1 WtCom= 1.00D+00 WtEn= 0.00D+00
 Coeff-Com: -0.354D-03 0.138D-01 0.206D-01 0.432D-01 0.213D+00 0.710D+00
 Coeff:     -0.354D-03 0.138D-01 0.206D-01 0.432D-01 0.213D+00 0.710D+00
 Gap=     0.191 Goal=   None    Shift=    0.000
 RMSDP=1.07D-08 MaxDP=3.78D-07 DE=-1.01D-10 OVMax= 5.79D-07

 Cycle  13  Pass 1  IDiag  1:
 RMSU=  7.63D-09    CP:  1.00D+00  1.01D+00  6.05D-01  6.29D-01  9.05D-01
                    CP:  9.08D-01
 E= -745.273788959882     Delta-E=        0.000000000001 Rises=F Damp=F
 DIIS: error= 3.37D-08 at cycle   7 NSaved=   7.
 NSaved= 7 IEnMin= 6 EnMin= -745.273788959884     IErMin= 7 ErrMin= 3.37D-08
 ErrMax= 3.37D-08  0.00D+00 EMaxC= 1.00D-01 BMatC= 1.05D-12 BMatP= 4.62D-12
 IDIUse=1 WtCom= 1.00D+00 WtEn= 0.00D+00
 Coeff-Com:  0.398D-04-0.271D-02-0.402D-02-0.536D-02 0.344D-01 0.367D+00
 Coeff-Com:  0.610D+00
 Coeff:      0.398D-04-0.271D-02-0.402D-02-0.536D-02 0.344D-01 0.367D+00
 Coeff:      0.610D+00
 Gap=     0.191 Goal=   None    Shift=    0.000
 RMSDP=3.29D-09 MaxDP=1.25D-07 DE= 1.36D-12 OVMax= 2.17D-07

 SCF Done:  E(RPBE1PBE) =  -745.273788960     A.U. after   13 cycles
            NFock= 13  Conv=0.33D-08     -V/T= 2.0130
 KE= 7.356944933563D+02 PE=-4.895631557995D+03 EE= 1.827877471424D+03
 Leave Link  502 at Thu Jan 23 18:22:44 2025, MaxMem=  3221225472 cpu:            1098.6 elap:              45.9
 (Enter /software/gaussian/G16-C.01/avx2/g16/l601.exe)
 Copying SCF densities to generalized density rwf, IOpCl= 0 IROHF=0.

 **********************************************************************

            Population analysis using the SCF Density.

 **********************************************************************

 Orbital symmetries:
       Occupied  (A) (A) (A) (A) (A) (A) (A) (A) (A) (A) (A) (A)
                 (A) (A) (A) (A) (A) (A) (A) (A) (A) (A) (A) (A)
                 (A) (A) (A) (A) (A) (A) (A) (A) (A) (A) (A) (A)
                 (A) (A) (A) (A) (A) (A) (A) (A) (A) (A) (A) (A)
                 (A) (A) (A) (A) (A) (A) (A) (A) (A) (A) (A) (A)
                 (A) (A) (A) (A) (A) (A) (A) (A) (A) (A) (A) (A)
                 (A)
       Virtual   (A) (A) (A) (A) (A) (A) (A) (A) (A) (A) (A) (A)
                 (A) (A) (A) (A) (A) (A) (A) (A) (A) (A) (A) (A)
                 (A) (A) (A) (A) (A) (A) (A) (A) (A) (A) (A) (A)
                 (A) (A) (A) (A) (A) (A) (A) (A) (A) (A) (A) (A)
                 (A) (A) (A) (A) (A) (A) (A) (A) (A) (A) (A) (A)
                 (A) (A) (A) (A) (A) (A) (A) (A) (A) (A) (A) (A)
                 (A) (A) (A) (A) (A) (A) (A) (A) (A) (A) (A) (A)
                 (A) (A) (A) (A) (A) (A) (A) (A) (A) (A) (A) (A)
                 (A) (A) (A) (A) (A) (A) (A) (A) (A) (A) (A) (A)
                 (A) (A) (A) (A) (A) (A) (A) (A) (A) (A) (A) (A)
                 (A) (A) (A) (A) (A) (A) (A) (A) (A) (A) (A) (A)
                 (A) (A) (A) (A) (A) (A) (A) (A) (A) (A) (A) (A)
                 (A) (A) (A) (A) (A) (A) (A) (A) (A) (A) (A) (A)
                 (A) (A) (A) (A) (A) (A) (A) (A) (A) (A) (A) (A)
                 (A) (A) (A) (A) (A) (A) (A) (A) (A) (A) (A) (A)
                 (A) (A) (A) (A) (A) (A) (A) (A) (A) (A) (A) (A)
                 (A) (A) (A) (A) (A) (A) (A) (A) (A) (A) (A) (A)
                 (A) (A) (A) (A) (A) (A) (A) (A) (A) (A) (A) (A)
                 (A) (A) (A) (A) (A) (A) (A) (A) (A) (A) (A) (A)
                 (A) (A) (A) (A) (A) (A) (A) (A) (A) (A) (A) (A)
                 (A) (A) (A) (A) (A) (A) (A) (A) (A) (A) (A) (A)
                 (A) (A) (A) (A) (A) (A) (A) (A) (A) (A) (A) (A)
                 (A) (A) (A) (A) (A) (A) (A) (A) (A) (A) (A) (A)
                 (A) (A) (A) (A) (A) (A) (A) (A) (A) (A) (A) (A)
                 (A) (A) (A) (A) (A) (A) (A) (A) (A) (A) (A) (A)
                 (A) (A) (A) (A) (A) (A) (A) (A) (A) (A) (A) (A)
                 (A) (A) (A) (A) (A) (A) (A) (A) (A) (A) (A) (A)
                 (A) (A) (A) (A) (A) (A) (A) (A) (A) (A) (A) (A)
                 (A) (A) (A) (A) (A) (A) (A) (A) (A) (A) (A) (A)
                 (A) (A) (A) (A) (A)
 The electronic state is 1-A.
 Alpha  occ. eigenvalues --  -14.37585 -10.25627 -10.24934 -10.24663 -10.23512
 Alpha  occ. eigenvalues --  -10.23215 -10.23169 -10.23014 -10.22638 -10.22627
 Alpha  occ. eigenvalues --  -10.22509 -10.22489 -10.22358 -10.22252 -10.21895
 Alpha  occ. eigenvalues --  -10.21748 -10.20552 -10.19961  -6.76364  -0.92084
 Alpha  occ. eigenvalues --   -0.85143  -0.81648  -0.78302  -0.77638  -0.76730
 Alpha  occ. eigenvalues --   -0.75333  -0.70374  -0.69658  -0.68399  -0.66058
 Alpha  occ. eigenvalues --   -0.64158  -0.62418  -0.58657  -0.57240  -0.55505
 Alpha  occ. eigenvalues --   -0.54287  -0.54113  -0.50394  -0.49766  -0.49396
 Alpha  occ. eigenvalues --   -0.47435  -0.47082  -0.45838  -0.44774  -0.43443
 Alpha  occ. eigenvalues --   -0.43264  -0.42348  -0.42214  -0.41368  -0.41063
 Alpha  occ. eigenvalues --   -0.40788  -0.39545  -0.39133  -0.38851  -0.38507
 Alpha  occ. eigenvalues --   -0.37799  -0.37444  -0.36752  -0.35161  -0.34567
 Alpha  occ. eigenvalues --   -0.34043  -0.33956  -0.33101  -0.32839  -0.32311
 Alpha  occ. eigenvalues --   -0.32003  -0.31806  -0.31494  -0.30887  -0.29791
 Alpha  occ. eigenvalues --   -0.27587  -0.26650  -0.20775
 Alpha virt. eigenvalues --   -0.01673   0.04323   0.06221   0.06847   0.07591
 Alpha virt. eigenvalues --    0.07812   0.08915   0.09317   0.09698   0.10705
 Alpha virt. eigenvalues --    0.11389   0.11850   0.12312   0.12543   0.12881
 Alpha virt. eigenvalues --    0.13536   0.14249   0.14425   0.15238   0.15335
 Alpha virt. eigenvalues --    0.15546   0.16488   0.16716   0.16883   0.17083
 Alpha virt. eigenvalues --    0.17905   0.18547   0.19337   0.19610   0.20039
 Alpha virt. eigenvalues --    0.20639   0.21084   0.21117   0.21292   0.21668
 Alpha virt. eigenvalues --    0.22242   0.22902   0.23468   0.23571   0.24183
 Alpha virt. eigenvalues --    0.24604   0.24770   0.26001   0.26809   0.27854
 Alpha virt. eigenvalues --    0.28636   0.29387   0.30417   0.31718   0.32407
 Alpha virt. eigenvalues --    0.33637   0.34269   0.35747   0.37254   0.40619
 Alpha virt. eigenvalues --    0.41203   0.42575   0.43664   0.44267   0.45406
 Alpha virt. eigenvalues --    0.46121   0.46665   0.47493   0.48159   0.48434
 Alpha virt. eigenvalues --    0.49756   0.50023   0.50989   0.52031   0.53479
 Alpha virt. eigenvalues --    0.54358   0.55924   0.57198   0.57645   0.57883
 Alpha virt. eigenvalues --    0.58733   0.59745   0.60645   0.60940   0.61371
 Alpha virt. eigenvalues --    0.61888   0.62350   0.62746   0.63598   0.64173
 Alpha virt. eigenvalues --    0.64298   0.64849   0.65145   0.65482   0.65689
 Alpha virt. eigenvalues --    0.66416   0.66660   0.66698   0.67167   0.67634
 Alpha virt. eigenvalues --    0.68151   0.68355   0.68644   0.68852   0.69002
 Alpha virt. eigenvalues --    0.69351   0.69513   0.69842   0.70484   0.70800
 Alpha virt. eigenvalues --    0.70951   0.71105   0.71280   0.71958   0.72120
 Alpha virt. eigenvalues --    0.72552   0.72914   0.73347   0.73979   0.74079
 Alpha virt. eigenvalues --    0.74621   0.74950   0.75297   0.75730   0.76214
 Alpha virt. eigenvalues --    0.76526   0.76877   0.77223   0.78001   0.78780
 Alpha virt. eigenvalues --    0.79141   0.79674   0.80265   0.81224   0.81483
 Alpha virt. eigenvalues --    0.83175   0.83497   0.84767   0.86267   0.88813
 Alpha virt. eigenvalues --    0.90215   0.91125   0.92431   0.94035   0.94780
 Alpha virt. eigenvalues --    0.97149   0.99088   1.01190   1.02866   1.04358
 Alpha virt. eigenvalues --    1.05639   1.07743   1.08899   1.09804   1.10406
 Alpha virt. eigenvalues --    1.12010   1.13361   1.13740   1.16696   1.17261
 Alpha virt. eigenvalues --    1.19719   1.20293   1.22665   1.24401   1.25407
 Alpha virt. eigenvalues --    1.26953   1.27994   1.28398   1.29377   1.30779
 Alpha virt. eigenvalues --    1.33208   1.33521   1.34695   1.35839   1.36081
 Alpha virt. eigenvalues --    1.36595   1.37724   1.38593   1.40296   1.41951
 Alpha virt. eigenvalues --    1.43201   1.45116   1.45874   1.46906   1.48428
 Alpha virt. eigenvalues --    1.51578   1.53486   1.54924   1.55149   1.56934
 Alpha virt. eigenvalues --    1.57675   1.58215   1.60103   1.61080   1.63159
 Alpha virt. eigenvalues --    1.64405   1.64727   1.66238   1.69024   1.70185
 Alpha virt. eigenvalues --    1.70724   1.71383   1.72824   1.73505   1.74227
 Alpha virt. eigenvalues --    1.74789   1.75602   1.76287   1.77030   1.77714
 Alpha virt. eigenvalues --    1.77836   1.79002   1.79424   1.79704   1.79932
 Alpha virt. eigenvalues --    1.80358   1.81335   1.81643   1.82345   1.82815
 Alpha virt. eigenvalues --    1.83091   1.83141   1.83849   1.84180   1.84821
 Alpha virt. eigenvalues --    1.85083   1.85471   1.86114   1.86523   1.86689
 Alpha virt. eigenvalues --    1.87384   1.87720   1.87985   1.88322   1.88786
 Alpha virt. eigenvalues --    1.89629   1.90066   1.91303   1.91461   1.91925
 Alpha virt. eigenvalues --    1.92597   1.93186   1.94740   1.95304   1.95685
 Alpha virt. eigenvalues --    1.95871   1.96978   1.97305   1.97775   1.97935
 Alpha virt. eigenvalues --    1.98906   2.00334   2.00840   2.01534   2.02025
 Alpha virt. eigenvalues --    2.02921   2.03745   2.04606   2.05428   2.06342
 Alpha virt. eigenvalues --    2.07211   2.07857   2.08581   2.09371   2.10025
 Alpha virt. eigenvalues --    2.11724   2.14209   2.14700   2.14766   2.16141
 Alpha virt. eigenvalues --    2.16908   2.19437   2.19737   2.20497   2.22083
 Alpha virt. eigenvalues --    2.22525   2.26078   2.26293   2.27202   2.27864
 Alpha virt. eigenvalues --    2.28615   2.30684   2.31295   2.31498   2.32686
 Alpha virt. eigenvalues --    2.34253   2.35834   2.37247   2.38203   2.38344
 Alpha virt. eigenvalues --    2.38457   2.39334   2.40748   2.41894   2.44198
 Alpha virt. eigenvalues --    2.45359   2.46184   2.47396   2.48604   2.48866
 Alpha virt. eigenvalues --    2.51084   2.51838   2.52764   2.54040   2.55180
 Alpha virt. eigenvalues --    2.56997   2.57511   2.58039   2.58307   2.59045
 Alpha virt. eigenvalues --    2.60122   2.61238   2.63920   2.64516   2.65781
 Alpha virt. eigenvalues --    2.66624   2.67723   2.68668   2.68850   2.73298
 Alpha virt. eigenvalues --    2.75756   2.78504   2.79822   2.80299   2.80757
 Alpha virt. eigenvalues --    2.81909   2.85201   2.86970   2.88969   2.89693
 Alpha virt. eigenvalues --    2.91054   2.91879   2.93149   2.94492   2.96055
 Alpha virt. eigenvalues --    2.96592   2.97394   2.98176   2.98679   2.99133
 Alpha virt. eigenvalues --    3.00195   3.00436   3.02718   3.03472   3.03878
 Alpha virt. eigenvalues --    3.04721   3.05458   3.06541   3.06823   3.07366
 Alpha virt. eigenvalues --    3.08206   3.10493   3.11144   3.12060   3.13745
 Alpha virt. eigenvalues --    3.17566   3.22455   3.24449
          Condensed to atoms (all electrons):
 Mulliken charges:
               1
     1  C    0.013880
     2  C   -0.196514
     3  C   -0.034844
     4  B    0.145653
     5  C   -0.190974
     6  C    0.008284
     7  C   -0.093320
     8  C    0.020516
     9  C   -0.173045
    10  C   -0.030303
    11  C   -0.012548
    12  N   -0.405621
    13  C    0.044962
    14  C   -0.044012
    15  C   -0.069743
    16  C   -0.066193
    17  C   -0.054501
    18  C   -0.048812
    19  C    0.100272
    20  H    0.030600
    21  H    0.037416
    22  H    0.026081
    23  H    0.061094
    24  H    0.039965
    25  H    0.044475
    26  H    0.027265
    27  H    0.029079
    28  H    0.037401
    29  H    0.042629
    30  H    0.041690
    31  H    0.033050
    32  H    0.029544
    33  H    0.032129
    34  H    0.044599
    35  H    0.022683
    36  H    0.039568
    37  H    0.024726
    38  H    0.051813
    39  H    0.023693
    40  H    0.037040
    41  H    0.048264
    42  H    0.030897
    43  H    0.032609
    44  H    0.033723
    45  H    0.029477
    46  H    0.026761
    47  H    0.032358
    48  H    0.027091
    49  H    0.033628
    50  H    0.023619
    51  H    0.011898
 Sum of Mulliken charges =  -0.00000
 Mulliken charges with hydrogens summed into heavy atoms:
               1
     1  C    0.107976
     2  C   -0.196514
     3  C    0.110690
     4  B    0.145653
     5  C   -0.163709
     6  C    0.074764
     7  C   -0.009000
     8  C    0.083110
     9  C   -0.140916
    10  C    0.036980
    11  C    0.051746
    12  N   -0.405621
    13  C    0.120467
    14  C    0.041292
    15  C   -0.006237
    16  C   -0.002994
    17  C    0.004618
    18  C    0.011906
    19  C    0.135788
 Electronic spatial extent (au):  <R**2>=           5917.1533
 Charge=              0.0000 electrons
 Dipole moment (field-independent basis, Debye):
    X=              0.1421    Y=              0.4213    Z=              0.2614  Tot=              0.5158
 Quadrupole moment (field-independent basis, Debye-Ang):
   XX=           -121.2191   YY=           -120.3524   ZZ=           -123.6408
   XY=              0.6107   XZ=             -0.8717   YZ=             -0.8502
 Traceless Quadrupole moment (field-independent basis, Debye-Ang):
   XX=              0.5183   YY=              1.3850   ZZ=             -1.9034
   XY=              0.6107   XZ=             -0.8717   YZ=             -0.8502
 Octapole moment (field-independent basis, Debye-Ang**2):
  XXX=             -0.9158  YYY=              7.2828  ZZZ=             -3.4359  XYY=             -3.0815
  XXY=              2.7812  XXZ=             -3.2296  XZZ=             -6.2560  YZZ=             -2.7830
  YYZ=             -2.1426  XYZ=             -0.8054
 Hexadecapole moment (field-independent basis, Debye-Ang**3):
 XXXX=          -5875.2942 YYYY=          -1533.2487 ZZZZ=           -912.5731 XXXY=             -4.0948
 XXXZ=             -9.0048 YYYX=             -6.6127 YYYZ=             -5.7407 ZZZX=              0.3822
 ZZZY=             -4.4787 XXYY=          -1213.4006 XXZZ=          -1134.1185 YYZZ=           -411.2194
 XXYZ=              6.7908 YYXZ=             -0.3537 ZZXY=              1.4603
 N-N= 1.586785804254D+03 E-N=-4.895631534356D+03  KE= 7.356944933563D+02
 No NMR shielding tensors so no spin-rotation constants.
 Leave Link  601 at Thu Jan 23 18:22:44 2025, MaxMem=  3221225472 cpu:               5.1 elap:               0.2
 (Enter /software/gaussian/G16-C.01/avx2/g16/l701.exe)
 ... and contract with generalized density number  0.
 Compute integral first derivatives.
 R6Disp: Adding Grimme-D3(BJ) dispersion energy 1st derivatives to the gradient.
   1 Symmetry operations used in ECPInt.
 ECPInt:  NShTT=   22155 NPrTT=   75809 LenC2=   20724 LenP2D=   51612.
 LDataN:  DoStor=T MaxTD1= 5 Len=  102
 Leave Link  701 at Thu Jan 23 18:22:44 2025, MaxMem=  3221225472 cpu:               7.4 elap:               0.3
 (Enter /software/gaussian/G16-C.01/avx2/g16/l702.exe)
 L702 exits ... SP integral derivatives will be done elsewhere.
 Leave Link  702 at Thu Jan 23 18:22:44 2025, MaxMem=  3221225472 cpu:               0.8 elap:               0.0
 (Enter /software/gaussian/G16-C.01/avx2/g16/l703.exe)
 Integral derivatives from FoFJK, PRISM(SPDF).
 Compute integral first derivatives, UseDBF=F ICtDFT=           0.
 Calling FoFJK, ICntrl=      2127 FMM=F ISym2X=0 I1Cent= 0 IOpClX= 0 NMat=1 NMatS=1 NMatT=0.
 FoFJK:  IHMeth= 1 ICntrl=    2127 DoSepK=F KAlg= 0 I1Cent=           0 FoldK=F
 IRaf=         0 NMat=       1 IRICut=       1 DoRegI=T DoRafI=F ISym2E= 0 IDoP0=0 IntGTp=1.
 FoFCou: FMM=F IPFlag=           0 FMFlag=      100000 FMFlg1=         800
         NFxFlg=           0 DoJE=F BraDBF=F KetDBF=F FulRan=T
         wScrn=  0.000000 ICntrl=      2127 IOpCl=  0 I1Cent=           0 NGrid=           0
         NMat0=    1 NMatS0=      1 NMatT0=    0 NMatD0=    1 NMtDS0=    0 NMtDT0=    0
 Symmetry not used in FoFCou.
 Leave Link  703 at Thu Jan 23 18:22:55 2025, MaxMem=  3221225472 cpu:             262.5 elap:              11.0
 (Enter /software/gaussian/G16-C.01/avx2/g16/l716.exe)
 Dipole        = 5.59146253D-02 1.65759909D-01 1.02860091D-01
 ***** Axes restored to original set *****
 -------------------------------------------------------------------
 Center     Atomic                   Forces (Hartrees/Bohr)
 Number     Number              X              Y              Z
 -------------------------------------------------------------------
      1        6          -0.006733126   -0.003984657   -0.012464789
      2        6          -0.008434917    0.009487310    0.003558515
      3        6          -0.026801571   -0.000408612   -0.001090218
      4        5          -0.025410245   -0.002475856    0.006443942
      5        6          -0.001827260    0.034878576    0.006032114
      6        6           0.013965551   -0.000634347   -0.003001874
      7        6          -0.003801894    0.009348531   -0.008861440
      8        6           0.000548418    0.002540654    0.002559572
      9        6           0.001582986   -0.012334545   -0.001446432
     10        6          -0.009942567    0.001998695    0.002851723
     11        6           0.003005403   -0.012722498   -0.001899379
     12        7           0.018116955    0.016234562   -0.005522273
     13        6           0.013340716    0.006840783   -0.001062162
     14        6          -0.008239910   -0.013258406    0.005834239
     15        6          -0.002610643    0.006196776    0.017523549
     16        6          -0.003414619   -0.008490841   -0.010773605
     17        6           0.000454436    0.017387961    0.000055786
     18        6          -0.006434449    0.009933224   -0.012138307
     19        6          -0.001587446   -0.020053504    0.015525003
     20        1          -0.002939539    0.000611126    0.001443014
     21        1           0.001634482    0.000811596    0.003881367
     22        1           0.010445141   -0.003215687    0.004311329
     23        1           0.002951017    0.007154999   -0.001286326
     24        1           0.010560317    0.000883365   -0.001250843
     25        1           0.009245375   -0.009495099    0.015425400
     26        1           0.008370180   -0.013739731   -0.002836556
     27        1           0.000398211   -0.001533291    0.005806211
     28        1          -0.008645398   -0.008335163   -0.007146755
     29        1          -0.004048390   -0.000096506    0.007561660
     30        1          -0.003038296   -0.000914116   -0.001812308
     31        1          -0.001244146    0.000034319   -0.003249328
     32        1           0.001951446    0.000118507    0.006220250
     33        1           0.003835371   -0.002667606   -0.000421585
     34        1           0.010336901    0.000098727   -0.004003335
     35        1          -0.003688961    0.001895837   -0.001241315
     36        1           0.004578008   -0.000966077   -0.001673248
     37        1          -0.005374101    0.004203116    0.000188336
     38        1          -0.004613240   -0.007560205   -0.019213310
     39        1           0.002715028   -0.012253238   -0.000801734
     40        1          -0.002457839    0.001140483   -0.005152355
     41        1          -0.000280611    0.013977672    0.000067332
     42        1           0.004023542    0.007638821   -0.005116269
     43        1           0.001254554   -0.006264742   -0.008882583
     44        1           0.001980311    0.001135196    0.000066264
     45        1           0.001173212   -0.011402109    0.002704496
     46        1          -0.003475989   -0.002456720    0.001131248
     47        1           0.001184724   -0.003817575    0.004167141
     48        1          -0.000089945    0.003618418    0.006700385
     49        1           0.006639104    0.002524751    0.003940374
     50        1           0.013222132    0.000114005   -0.005177226
     51        1          -0.002378417   -0.001726877    0.003526306
 -------------------------------------------------------------------
 Cartesian Forces:  Max     0.034878576 RMS     0.008102260
 Leave Link  716 at Thu Jan 23 18:22:55 2025, MaxMem=  3221225472 cpu:               1.4 elap:               0.1
 (Enter /software/gaussian/G16-C.01/avx2/g16/l103.exe)

 GradGradGradGradGradGradGradGradGradGradGradGradGradGradGradGradGradGrad
 Berny optimization.
 FormGI is forming the generalized inverse of G from B-inverse, IUseBI=4.
 Internal  Forces:  Max     0.028362772 RMS     0.004487834
 Search for a local minimum.
 Step number   1 out of a maximum of  306
 All quantities printed in internal units (Hartrees-Bohrs-Radians)
 RMS Force = .44878D-02 SwitMx=.10000D-02 MixMth= 1
 Mixed Optimization -- RFO/linear search
 Second derivative matrix not updated -- first step.
 ITU=  0
     Eigenvalues ---    0.00230   0.00230   0.00230   0.00230   0.00319
     Eigenvalues ---    0.00341   0.00347   0.00378   0.00483   0.00708
     Eigenvalues ---    0.00879   0.00906   0.01169   0.01474   0.01939
     Eigenvalues ---    0.02021   0.02193   0.02446   0.03036   0.03097
     Eigenvalues ---    0.03196   0.03528   0.03648   0.04002   0.04030
     Eigenvalues ---    0.04142   0.04157   0.04167   0.04573   0.04590
     Eigenvalues ---    0.04666   0.04782   0.04803   0.04845   0.04943
     Eigenvalues ---    0.05031   0.05130   0.05203   0.05227   0.05310
     Eigenvalues ---    0.05332   0.05357   0.05424   0.05451   0.05462
     Eigenvalues ---    0.05471   0.05602   0.05717   0.06173   0.06923
     Eigenvalues ---    0.07088   0.07201   0.07271   0.07298   0.07629
     Eigenvalues ---    0.07670   0.07767   0.08271   0.08336   0.08375
     Eigenvalues ---    0.08682   0.08797   0.08957   0.09021   0.09037
     Eigenvalues ---    0.09042   0.09067   0.09401   0.09459   0.09528
     Eigenvalues ---    0.10013   0.12215   0.12664   0.12732   0.12832
     Eigenvalues ---    0.13072   0.14531   0.14917   0.15077   0.15534
     Eigenvalues ---    0.16000   0.16000   0.16000   0.16000   0.16000
     Eigenvalues ---    0.16000   0.16051   0.16241   0.17403   0.18075
     Eigenvalues ---    0.19904   0.21642   0.21852   0.22558   0.23991
     Eigenvalues ---    0.23998   0.24545   0.24957   0.25583   0.25890
     Eigenvalues ---    0.26378   0.26798   0.27071   0.27380   0.27455
     Eigenvalues ---    0.27846   0.27924   0.28240   0.28560   0.28593
[...]
                 (A) (A) (A) (A) (A) (A) (A) (A) (A) (A) (A) (A)
                 (A) (A) (A) (A) (A) (A) (A) (A) (A) (A) (A) (A)
                 (A) (A) (A) (A) (A) (A) (A) (A) (A) (A) (A) (A)
                 (A) (A) (A) (A) (A) (A) (A) (A) (A) (A) (A) (A)
                 (A) (A) (A) (A) (A) (A) (A) (A) (A) (A) (A) (A)
                 (A) (A) (A) (A) (A) (A) (A) (A) (A) (A) (A) (A)
                 (A) (A) (A) (A) (A) (A) (A) (A) (A) (A) (A) (A)
                 (A) (A) (A) (A) (A) (A) (A) (A) (A) (A) (A) (A)
                 (A) (A) (A) (A) (A) (A) (A) (A) (A) (A) (A) (A)
                 (A) (A) (A) (A) (A) (A) (A) (A) (A) (A) (A) (A)
                 (A) (A) (A) (A) (A) (A) (A) (A) (A) (A) (A) (A)
                 (A) (A) (A) (A) (A) (A) (A) (A) (A) (A) (A) (A)
 The electronic state is 1-A.
 Alpha  occ. eigenvalues --  -14.36623 -10.24469 -10.23461 -10.23337 -10.21999
 Alpha  occ. eigenvalues --  -10.21595 -10.21429 -10.21300 -10.21280 -10.21269
 Alpha  occ. eigenvalues --  -10.21173 -10.21170 -10.21103 -10.21048 -10.20961
 Alpha  occ. eigenvalues --  -10.20229 -10.19517 -10.19174  -6.75470  -0.94755
 Alpha  occ. eigenvalues --   -0.85939  -0.83110  -0.79819  -0.78761  -0.77664
 Alpha  occ. eigenvalues --   -0.76198  -0.71786  -0.71038  -0.69797  -0.66777
 Alpha  occ. eigenvalues --   -0.65051  -0.63213  -0.60377  -0.57869  -0.56089
 Alpha  occ. eigenvalues --   -0.55193  -0.54875  -0.51005  -0.50343  -0.49873
 Alpha  occ. eigenvalues --   -0.48232  -0.47717  -0.46502  -0.45216  -0.43801
 Alpha  occ. eigenvalues --   -0.43723  -0.42802  -0.42475  -0.41595  -0.41071
 Alpha  occ. eigenvalues --   -0.40915  -0.39861  -0.39365  -0.38751  -0.38685
 Alpha  occ. eigenvalues --   -0.38371  -0.37713  -0.37450  -0.35554  -0.34918
 Alpha  occ. eigenvalues --   -0.34628  -0.34192  -0.33415  -0.32657  -0.32144
 Alpha  occ. eigenvalues --   -0.32070  -0.31928  -0.31777  -0.30899  -0.30499
 Alpha  occ. eigenvalues --   -0.27390  -0.26678  -0.21254
 Alpha virt. eigenvalues --   -0.01223   0.02973   0.04567   0.04930   0.05634
 Alpha virt. eigenvalues --    0.06085   0.07150   0.07293   0.07530   0.08668
 Alpha virt. eigenvalues --    0.08761   0.09358   0.09615   0.10280   0.10408
 Alpha virt. eigenvalues --    0.10799   0.11615   0.11722   0.12212   0.12389
 Alpha virt. eigenvalues --    0.13102   0.13264   0.14224   0.14499   0.14656
 Alpha virt. eigenvalues --    0.15328   0.15720   0.16209   0.16722   0.17037
 Alpha virt. eigenvalues --    0.17381   0.17663   0.18393   0.18557   0.18932
 Alpha virt. eigenvalues --    0.18969   0.19456   0.20442   0.20546   0.20791
 Alpha virt. eigenvalues --    0.21010   0.21486   0.21679   0.22153   0.22661
 Alpha virt. eigenvalues --    0.22940   0.23107   0.24614   0.24742   0.25112
 Alpha virt. eigenvalues --    0.25995   0.26174   0.26547   0.26836   0.27343
 Alpha virt. eigenvalues --    0.28047   0.28583   0.29445   0.29616   0.29722
 Alpha virt. eigenvalues --    0.30982   0.31224   0.31916   0.32086   0.32168
 Alpha virt. eigenvalues --    0.32897   0.33617   0.33967   0.35555   0.35611
 Alpha virt. eigenvalues --    0.36409   0.37206   0.37335   0.37914   0.38101
 Alpha virt. eigenvalues --    0.38911   0.39461   0.40098   0.40403   0.40590
 Alpha virt. eigenvalues --    0.41154   0.41710   0.42200   0.42338   0.42517
 Alpha virt. eigenvalues --    0.42672   0.42717   0.42958   0.43454   0.43658
 Alpha virt. eigenvalues --    0.44197   0.44319   0.44575   0.44853   0.45082
 Alpha virt. eigenvalues --    0.45362   0.45540   0.45971   0.46178   0.46790
 Alpha virt. eigenvalues --    0.47130   0.47218   0.47405   0.47679   0.48044
 Alpha virt. eigenvalues --    0.48139   0.48679   0.48902   0.49022   0.49709
 Alpha virt. eigenvalues --    0.50009   0.50282   0.50442   0.51026   0.51457
 Alpha virt. eigenvalues --    0.51722   0.51795   0.52674   0.53072   0.53599
 Alpha virt. eigenvalues --    0.54156   0.54578   0.54600   0.55003   0.55435
 Alpha virt. eigenvalues --    0.56357   0.56572   0.57149   0.57711   0.58183
 Alpha virt. eigenvalues --    0.58886   0.59816   0.60314   0.61177   0.61607
 Alpha virt. eigenvalues --    0.62623   0.63597   0.63704   0.63956   0.65305
 Alpha virt. eigenvalues --    0.66477   0.66809   0.67911   0.68178   0.68921
 Alpha virt. eigenvalues --    0.69314   0.70377   0.70950   0.71897   0.72520
 Alpha virt. eigenvalues --    0.72640   0.74405   0.74753   0.75430   0.77093
 Alpha virt. eigenvalues --    0.77423   0.78369   0.78853   0.80073   0.80826
 Alpha virt. eigenvalues --    0.81758   0.82861   0.83129   0.84100   0.84467
 Alpha virt. eigenvalues --    0.84957   0.86160   0.86527   0.87591   0.89103
 Alpha virt. eigenvalues --    0.89285   0.90026   0.90391   0.91394   0.91906
 Alpha virt. eigenvalues --    0.92497   0.93097   0.93264   0.94326   0.94840
 Alpha virt. eigenvalues --    0.95666   0.96652   0.97062   0.97457   0.98680
 Alpha virt. eigenvalues --    0.99898   0.99967   1.00966   1.01178   1.02189
 Alpha virt. eigenvalues --    1.02833   1.03733   1.04662   1.05613   1.06078
 Alpha virt. eigenvalues --    1.06762   1.07030   1.07820   1.08093   1.09012
 Alpha virt. eigenvalues --    1.09891   1.10162   1.10672   1.11431   1.12360
 Alpha virt. eigenvalues --    1.12990   1.13529   1.15086   1.15435   1.16244
 Alpha virt. eigenvalues --    1.16318   1.17029   1.18137   1.18367   1.20050
 Alpha virt. eigenvalues --    1.20563   1.21170   1.21499   1.22643   1.22812
 Alpha virt. eigenvalues --    1.23310   1.23385   1.24677   1.25186   1.26367
 Alpha virt. eigenvalues --    1.27612   1.28135   1.28306   1.29271   1.29680
 Alpha virt. eigenvalues --    1.30407   1.30871   1.31238   1.32008   1.32389
 Alpha virt. eigenvalues --    1.33335   1.33635   1.34118   1.35640   1.36165
 Alpha virt. eigenvalues --    1.37322   1.39345   1.39501   1.42237   1.42634
 Alpha virt. eigenvalues --    1.43219   1.44825   1.45239   1.46055   1.48117
 Alpha virt. eigenvalues --    1.49620   1.50082   1.51928   1.52923   1.53991
 Alpha virt. eigenvalues --    1.54550   1.55137   1.55607   1.56948   1.57819
 Alpha virt. eigenvalues --    1.58058   1.58781   1.60172   1.60772   1.61416
 Alpha virt. eigenvalues --    1.61481   1.62007   1.62666   1.62898   1.63314
 Alpha virt. eigenvalues --    1.63469   1.64194   1.64687   1.64928   1.65812
 Alpha virt. eigenvalues --    1.66176   1.66619   1.67493   1.68144   1.68361
 Alpha virt. eigenvalues --    1.69684   1.70052   1.70509   1.71360   1.71938
 Alpha virt. eigenvalues --    1.73214   1.73583   1.74357   1.74635   1.75233
 Alpha virt. eigenvalues --    1.75529   1.77425   1.78560   1.78823   1.79712
 Alpha virt. eigenvalues --    1.80016   1.80766   1.81605   1.83470   1.83972
 Alpha virt. eigenvalues --    1.84770   1.85000   1.85291   1.86442   1.86942
 Alpha virt. eigenvalues --    1.87586   1.88127   1.89197   1.90921   1.91474
 Alpha virt. eigenvalues --    1.92251   1.92705   1.93642   1.94540   1.95208
 Alpha virt. eigenvalues --    1.95369   1.96556   1.97295   1.97678   1.99151
 Alpha virt. eigenvalues --    1.99213   2.00547   2.01249   2.01640   2.02775
 Alpha virt. eigenvalues --    2.03324   2.03953   2.04442   2.05506   2.05977
 Alpha virt. eigenvalues --    2.06022   2.07361   2.08709   2.09670   2.10343
 Alpha virt. eigenvalues --    2.11337   2.11593   2.12563   2.13814   2.14566
 Alpha virt. eigenvalues --    2.15557   2.16111   2.17355   2.18113   2.19216
 Alpha virt. eigenvalues --    2.19707   2.20317   2.20657   2.21878   2.23274
 Alpha virt. eigenvalues --    2.24599   2.25867   2.26191   2.26644   2.27675
 Alpha virt. eigenvalues --    2.29087   2.29925   2.31573   2.32256   2.32665
 Alpha virt. eigenvalues --    2.34266   2.34647   2.35758   2.36221   2.37325
 Alpha virt. eigenvalues --    2.38352   2.39338   2.39671   2.40399   2.41044
 Alpha virt. eigenvalues --    2.41706   2.42511   2.43531   2.43874   2.45044
 Alpha virt. eigenvalues --    2.45461   2.45868   2.46622   2.48117   2.48571
 Alpha virt. eigenvalues --    2.49429   2.49507   2.50711   2.51207   2.51691
 Alpha virt. eigenvalues --    2.51985   2.52740   2.53354   2.54197   2.55152
 Alpha virt. eigenvalues --    2.55465   2.55880   2.56086   2.57446   2.58235
 Alpha virt. eigenvalues --    2.58798   2.59565   2.60315   2.60779   2.61463
 Alpha virt. eigenvalues --    2.62168   2.62722   2.63377   2.63528   2.64254
 Alpha virt. eigenvalues --    2.64440   2.65363   2.65841   2.65999   2.66588
 Alpha virt. eigenvalues --    2.67494   2.67596   2.68101   2.68596   2.68804
 Alpha virt. eigenvalues --    2.69642   2.70495   2.70636   2.71207   2.71388
 Alpha virt. eigenvalues --    2.72317   2.72778   2.73545   2.73820   2.74121
 Alpha virt. eigenvalues --    2.74624   2.74990   2.75563   2.76036   2.76807
 Alpha virt. eigenvalues --    2.77542   2.78025   2.78501   2.78680   2.80506
 Alpha virt. eigenvalues --    2.80700   2.81262   2.81674   2.82026   2.82926
 Alpha virt. eigenvalues --    2.83140   2.84838   2.85365   2.86650   2.87474
 Alpha virt. eigenvalues --    2.87865   2.87956   2.88659   2.90284   2.91550
 Alpha virt. eigenvalues --    2.91740   2.92386   2.92795   2.93701   2.94584
 Alpha virt. eigenvalues --    2.95623   2.95674   2.96839   2.97517   2.98090
 Alpha virt. eigenvalues --    2.98803   2.99685   3.00888   3.02436   3.02979
 Alpha virt. eigenvalues --    3.03267   3.04035   3.05388   3.06403   3.07148
 Alpha virt. eigenvalues --    3.08094   3.08502   3.10318   3.11066   3.11980
 Alpha virt. eigenvalues --    3.13354   3.13854   3.15393   3.16010   3.17205
 Alpha virt. eigenvalues --    3.17423   3.17667   3.18740   3.20225   3.20435
 Alpha virt. eigenvalues --    3.20730   3.21356   3.22146   3.22811   3.23997
 Alpha virt. eigenvalues --    3.24535   3.24840   3.25584   3.26030   3.27460
 Alpha virt. eigenvalues --    3.27559   3.29187   3.30224   3.30381   3.30713
 Alpha virt. eigenvalues --    3.31149   3.31816   3.32548   3.32985   3.33267
 Alpha virt. eigenvalues --    3.34062   3.34195   3.35099   3.35450   3.35729
 Alpha virt. eigenvalues --    3.36274   3.37064   3.37311   3.37737   3.37956
 Alpha virt. eigenvalues --    3.38541   3.38825   3.39814   3.40984   3.41749
 Alpha virt. eigenvalues --    3.42067   3.42434   3.43231   3.44359   3.44528
 Alpha virt. eigenvalues --    3.44923   3.45919   3.46230   3.47491   3.47977
 Alpha virt. eigenvalues --    3.48295   3.48781   3.49691   3.50520   3.52665
 Alpha virt. eigenvalues --    3.53548   3.54232   3.54635   3.55476   3.55601
 Alpha virt. eigenvalues --    3.55873   3.56889   3.57660   3.58958   3.59379
 Alpha virt. eigenvalues --    3.60285   3.61198   3.62065   3.63110   3.63924
 Alpha virt. eigenvalues --    3.64567   3.65260   3.66188   3.67038   3.68489
 Alpha virt. eigenvalues --    3.68763   3.69547   3.70629   3.71071   3.72587
 Alpha virt. eigenvalues --    3.73702   3.74231   3.74586   3.77000   3.77369
 Alpha virt. eigenvalues --    3.78438   3.79389   3.80439   3.81340   3.82349
 Alpha virt. eigenvalues --    3.82444   3.83083   3.83646   3.84462   3.86401
 Alpha virt. eigenvalues --    3.87270   3.88638   3.89443   3.89774   3.90810
 Alpha virt. eigenvalues --    3.92933   3.93523   3.94098   3.96229   3.97099
 Alpha virt. eigenvalues --    3.98104   3.99222   3.99604   4.00816   4.02487
 Alpha virt. eigenvalues --    4.03289   4.03989   4.04575   4.04966   4.05383
 Alpha virt. eigenvalues --    4.06422   4.07737   4.08434   4.09045   4.09580
 Alpha virt. eigenvalues --    4.10772   4.11242   4.11877   4.12051   4.13602
 Alpha virt. eigenvalues --    4.13966   4.14631   4.15049   4.15984   4.16992
 Alpha virt. eigenvalues --    4.18421   4.19509   4.20089   4.21461   4.23931
 Alpha virt. eigenvalues --    4.25214   4.26298   4.26880   4.28168   4.28949
 Alpha virt. eigenvalues --    4.30216   4.31004   4.32113   4.32764   4.33754
 Alpha virt. eigenvalues --    4.34582   4.37013   4.37557   4.37739   4.38999
 Alpha virt. eigenvalues --    4.39576   4.40460   4.42698   4.43575   4.44323
 Alpha virt. eigenvalues --    4.44917   4.46583   4.48904   4.50419   4.51028
 Alpha virt. eigenvalues --    4.51637   4.52734   4.55035   4.56130   4.57431
 Alpha virt. eigenvalues --    4.59110   4.59576   4.61292   4.62837   4.63733
 Alpha virt. eigenvalues --    4.64733   4.66050   4.67088   4.67819   4.72376
 Alpha virt. eigenvalues --    4.78972   4.81233   4.82260   4.83026   4.83648
 Alpha virt. eigenvalues --    4.85800   4.88177   4.90027   4.92310   4.94436
 Alpha virt. eigenvalues --    4.94766   4.95978   4.97256   4.99837   5.02440
 Alpha virt. eigenvalues --    5.03252   5.04184   5.06751   5.10202   5.12426
 Alpha virt. eigenvalues --    5.13495   5.14938   5.22612   5.25261   5.27963
 Alpha virt. eigenvalues --    5.44515   5.48756   5.52750   5.54604   5.60143
 Alpha virt. eigenvalues --    5.64027   5.88296   5.94797   6.06794  15.53877
 Alpha virt. eigenvalues --   22.52404  22.55795  22.57031  22.57547  22.58995
 Alpha virt. eigenvalues --   22.60358  22.63840  22.64078  22.65111  22.69925
 Alpha virt. eigenvalues --   22.71286  22.72729  22.75593  22.78097  22.91249
 Alpha virt. eigenvalues --   22.91420  23.02838  33.06763
          Condensed to atoms (all electrons):
 Mulliken charges:
               1
     1  C   -0.403374
     2  C    0.333390
     3  C   -0.446708
     4  B   -0.778291
     5  C    0.064737
     6  C   -0.153710
     7  C   -0.211232
     8  C   -0.154152
     9  C    0.122031
    10  C   -0.237263
    11  C   -0.220731
    12  N   -0.131644
    13  C   -0.152078
    14  C   -0.208789
    15  C   -0.216497
    16  C   -0.141353
    17  C   -0.248160
    18  C   -0.134374
    19  C   -0.221265
    20  H    0.133964
    21  H    0.132168
    22  H    0.121899
    23  H    0.155803
    24  H    0.142358
    25  H    0.124332
    26  H    0.092775
    27  H    0.106202
    28  H    0.105211
    29  H    0.109172
    30  H    0.109182
    31  H    0.102581
    32  H    0.110531
    33  H    0.086987
    34  H    0.122488
    35  H    0.101207
    36  H    0.116060
    37  H    0.104206
    38  H    0.132967
    39  H    0.098413
    40  H    0.106957
    41  H    0.112464
    42  H    0.097200
    43  H    0.103972
    44  H    0.108406
    45  H    0.095848
    46  H    0.095040
    47  H    0.105610
    48  H    0.105802
    49  H    0.096238
    50  H    0.104298
    51  H    0.099123
 Sum of Mulliken charges =  -0.00000
 Mulliken charges with hydrogens summed into heavy atoms:
               1
     1  C   -0.015343
     2  C    0.333390
     3  C   -0.024215
     4  B   -0.778291
     5  C    0.157512
     6  C    0.057703
     7  C    0.007122
     8  C    0.058960
     9  C    0.209019
    10  C   -0.013568
    11  C   -0.000465
    12  N   -0.131644
    13  C    0.079302
    14  C    0.010632
    15  C   -0.015325
    16  C    0.062901
    17  C   -0.047510
    18  C    0.067665
    19  C   -0.017844
 Electronic spatial extent (au):  <R**2>=           5758.9264
 Charge=             -0.0000 electrons
 Dipole moment (field-independent basis, Debye):
    X=             -0.1864    Y=              0.1991    Z=              0.1903  Tot=              0.3326
 Quadrupole moment (field-independent basis, Debye-Ang):
   XX=           -120.8954   YY=           -121.5574   ZZ=           -123.8786
   XY=              1.0371   XZ=             -0.3931   YZ=             -0.7570
 Traceless Quadrupole moment (field-independent basis, Debye-Ang):
   XX=              1.2151   YY=              0.5531   ZZ=             -1.7681
   XY=              1.0371   XZ=             -0.3931   YZ=             -0.7570
 Octapole moment (field-independent basis, Debye-Ang**2):
  XXX=             -6.2232  YYY=              5.4037  ZZZ=             -3.5589  XYY=             -5.7637
  XXY=              2.8290  XXZ=             -2.8565  XZZ=             -4.3253  YZZ=             -2.8730
  YYZ=             -2.3432  XYZ=              0.3411
 Hexadecapole moment (field-independent basis, Debye-Ang**3):
 XXXX=          -5660.5145 YYYY=          -1573.0491 ZZZZ=           -880.7922 XXXY=              4.3283
 XXXZ=             -0.2015 YYYX=             -3.0732 YYYZ=             -7.7829 ZZZX=              0.8214
 ZZZY=             -3.8020 XXYY=          -1195.5637 XXZZ=          -1094.2564 YYZZ=           -413.4215
 XXYZ=              4.1785 YYXZ=              0.2135 ZZXY=              3.1824
 N-N= 1.604996027468D+03 E-N=-4.939209031863D+03  KE= 7.416505103238D+02
 No NMR shielding tensors so no spin-rotation constants.
 Leave Link  601 at Thu Jan 23 18:53:54 2025, MaxMem=  3221225472 cpu:              12.7 elap:               0.6
 (Enter /software/gaussian/G16-C.01/avx2/g16/l9999.exe)
 Unable to Open any file for archive entry.
 1\1\GINC-NODE32\SP\RPBE1PBE\def2TZVP\C17H32B1N1\LAPLAZA\23-Jan-2025\0\
 \#p def2tzvp pbe1pbe integral=ultrafinegrid geom=allcheck guess=read e
 m=gd3bj\\neutral\\0,1\C,0,0.1000902416,2.2310437048,-1.2751966742\C,0,
 0.2543626778,0.7126092313,-1.1163244937\C,0,0.6755156053,0.0991880902,
 -2.4591521108\B,0,1.4164527083,0.3224072238,-0.0953179365\C,0,2.497537
 3561,1.2359358045,0.6011270813\C,0,3.7768691269,1.0086689386,-0.244432
 9829\C,0,4.2437378254,-0.4457988496,-0.2022107678\C,0,3.1195804403,-1.
 4475293205,-0.4653409413\C,0,1.8464331283,-1.1295151007,0.3569849422\C
 ,0,2.1968225254,-0.9067391072,1.8413975765\C,0,2.6163193851,0.58538532
 06,1.9936495083\N,0,-0.9591870029,0.0568892384,-0.6035465159\C,0,-1.16
 08746101,0.3143346286,0.8085861692\C,0,-1.8756048976,-0.8022634658,1.5
 815217824\C,0,-3.3474174029,-0.5562364346,1.9259881986\C,0,-4.21857678
 33,0.058714479,0.8374653104\C,0,-4.390415444,-0.7324229274,-0.45353134
 18\C,0,-3.1314239896,-1.0041535742,-1.2829426832\C,0,-2.1413836548,0.1
 61628276,-1.4369062781\H,0,1.0414280839,2.6888632859,-1.6172826815\H,0
 ,-0.1674083563,2.713982579,-0.3222583782\H,0,-0.6775773954,2.486747918
 8,-2.0139196058\H,0,0.6643729868,-0.9990785345,-2.4053456533\H,0,1.688
 8066283,0.4264617929,-2.7413973983\H,0,0.0113441019,0.4111542797,-3.28
 23153677\H,0,2.286573482,2.3141341975,0.6553159579\H,0,3.5902805669,1.
 3140721072,-1.290176928\H,0,4.585100759,1.6667011339,0.1204654672\H,0,
 5.0643164987,-0.6000108808,-0.9218598355\H,0,4.6805524352,-0.649009171
 1,0.7897727539\H,0,3.4710342365,-2.465689678,-0.2212480005\H,0,2.87490
 32718,-1.4620328111,-1.5407042257\H,0,1.1012691825,-1.9237733529,0.206
 4547264\H,0,1.3171023819,-1.1223369396,2.4687803216\H,0,2.9879464553,-
 1.5946727282,2.1855951912\H,0,1.9456147151,1.1005664095,2.6998209207\H
 ,0,3.6317897179,0.6894552064,2.4127571009\H,0,-0.1566990568,0.43845526
 21,1.2563801328\H,0,-1.664042369,1.2892902216,0.999351834\H,0,-1.33848
 45301,-0.966943555,2.530052335\H,0,-1.7464757495,-1.7332659899,1.01156
 75117\H,0,-3.794610429,-1.5072962727,2.2642109828\H,0,-3.3918109249,0.
 1168036883,2.8000529567\H,0,-5.2200955805,0.2365122163,1.2637793261\H,
 0,-3.8332024373,1.0634376646,0.5939668173\H,0,-4.8834726183,-1.6954529
 936,-0.2327469132\H,0,-5.1056299692,-0.1747107723,-1.0831584812\H,0,-3
 .4640654176,-1.3147695542,-2.2866572107\H,0,-2.5688054413,-1.862732864
 9,-0.8884267779\H,0,-1.7957203555,0.1720444491,-2.4788322223\H,0,-2.67
 38880883,1.1288170102,-1.2952821392\\Version=ES64L-G16RevC.01\State=1-
 A\HF=-746.0633133\RMSD=1.173e-09\Dipole=-0.0783872,0.0890365,-0.055266
 8\Quadrupole=0.9195062,-1.480946,0.5614398,0.0802326,-0.8177901,-0.034
 3819\PG=C01 [X(C17H32B1N1)]\\@
 The archive entry for this job was punched.


 THE WORLD IS MADE UP OF THE WILLS, THE WON'TS, AND THE CANT'S:
 THE WILLS DO EVERYTHING,
 THE WON'TS DO NOTHING,
 THE CAN'TS CAN'T DO ANYTHING.

                               -- FROM WALT DISNEY'S "BLACK HOLE"
 Job cpu time:       0 days  2 hours 36 minutes 29.5 seconds.
 Elapsed time:       0 days  0 hours  6 minutes 32.4 seconds.
 File lengths (MBytes):  RWF=    317 Int=      0 D2E=      0 Chk=     46 Scr=      1
 Normal termination of Gaussian 16 at Thu Jan 23 18:53:54 2025.
