 Entering Gaussian System, Link 0=g16
 Input=with_hydride.com
 Output=with_hydride.log
 Initial command:
 /software/gaussian/G16-C.01/avx2/g16/l1.exe "/scratch/laplaza/9953609.slurm/Gau-136015.inp" -scrdir="/scratch/laplaza/9953609.slurm/"
 Entering Link 1 = /software/gaussian/G16-C.01/avx2/g16/l1.exe PID=    136016.
  
 Copyright (c) 1988-2019, Gaussian, Inc.  All Rights Reserved.
  
 This is part of the Gaussian(R) 16 program.  It is based on
 the Gaussian(R) 09 system (copyright 2009, Gaussian, Inc.),
 the Gaussian(R) 03 system (copyright 2003, Gaussian, Inc.),
 the Gaussian(R) 98 system (copyright 1998, Gaussian, Inc.),
 the Gaussian(R) 94 system (copyright 1995, Gaussian, Inc.),
 the Gaussian 92(TM) system (copyright 1992, Gaussian, Inc.),
 the Gaussian 90(TM) system (copyright 1990, Gaussian, Inc.),
 the Gaussian 88(TM) system (copyright 1988, Gaussian, Inc.),
 the Gaussian 86(TM) system (copyright 1986, Carnegie Mellon
 University), and the Gaussian 82(TM) system (copyright 1983,
 Carnegie Mellon University). Gaussian is a federally registered
 trademark of Gaussian, Inc.
  
 This software contains proprietary and confidential information,
 including trade secrets, belonging to Gaussian, Inc.
  
 This software is provided under written license and may be
 used, copied, transmitted, or stored only in accord with that
 written license.
  
 The following legend is applicable only to US Government
 contracts under FAR:
  
                    RESTRICTED RIGHTS LEGEND
  
 Use, reproduction and disclosure by the US Government is
 subject to restrictions as set forth in subparagraphs (a)
 and (c) of the Commercial Computer Software - Restricted
 Rights clause in FAR 52.227-19.
  
 Gaussian, Inc.
 340 Quinnipiac St., Bldg. 40, Wallingford CT 06492
  
  
 ---------------------------------------------------------------
 Warning -- This program may not be used in any manner that
 competes with the business of Gaussian, Inc. or will provide
 assistance to any competitor of Gaussian, Inc.  The licensee
 of this program is prohibited from giving any competitor of
 Gaussian, Inc. access to this program.  By using this program,
 the user acknowledges that Gaussian, Inc. is engaged in the
 business of creating and licensing software in the field of
 computational chemistry and represents and warrants to the
 licensee that it is not a competitor of Gaussian, Inc. and that
 it will not use this program in any manner prohibited above.
 ---------------------------------------------------------------
  

 Cite this work as:
 Gaussian 16, Revision C.01,
 M. J. Frisch, G. W. Trucks, H. B. Schlegel, G. E. Scuseria, 
 M. A. Robb, J. R. Cheeseman, G. Scalmani, V. Barone, 
 G. A. Petersson, H. Nakatsuji, X. Li, M. Caricato, A. V. Marenich, 
 J. Bloino, B. G. Janesko, R. Gomperts, B. Mennucci, H. P. Hratchian, 
 J. V. Ortiz, A. F. Izmaylov, J. L. Sonnenberg, D. Williams-Young, 
 F. Ding, F. Lipparini, F. Egidi, J. Goings, B. Peng, A. Petrone, 
 T. Henderson, D. Ranasinghe, V. G. Zakrzewski, J. Gao, N. Rega, 
 G. Zheng, W. Liang, M. Hada, M. Ehara, K. Toyota, R. Fukuda, 
 J. Hasegawa, M. Ishida, T. Nakajima, Y. Honda, O. Kitao, H. Nakai, 
 T. Vreven, K. Throssell, J. A. Montgomery, Jr., J. E. Peralta, 
 F. Ogliaro, M. J. Bearpark, J. J. Heyd, E. N. Brothers, K. N. Kudin, 
 V. N. Staroverov, T. A. Keith, R. Kobayashi, J. Normand, 
 K. Raghavachari, A. P. Rendell, J. C. Burant, S. S. Iyengar, 
 J. Tomasi, M. Cossi, J. M. Millam, M. Klene, C. Adamo, R. Cammi, 
 J. W. Ochterski, R. L. Martin, K. Morokuma, O. Farkas, 
 J. B. Foresman, and D. J. Fox, Gaussian, Inc., Wallingford CT, 2019.
 
 ******************************************
 Gaussian 16:  ES64L-G16RevC.01  3-Jul-2019
                24-Jan-2025 
 ******************************************
 %nprocshared=24
 Will use up to   24 processors via shared memory.
 %mem=24GB
 %chk=with_hydride.chk
 -------------------------------------------------------------------
 #p opt freq=noraman def2svp pbe1pbe em=gd3bj integral=ultrafinegrid
 -------------------------------------------------------------------
 1/18=20,19=15,26=4,38=1/1,3;
 2/9=110,12=2,17=6,18=5,40=1/2;
 3/5=43,7=101,11=2,25=1,30=1,71=1,74=-13,75=-5,124=41/1,2,3;
 4//1;
 5/5=2,38=5/2;
 6/7=2,8=2,9=2,10=2,28=1/1;
 7//1,2,3,16;
 1/18=20,19=15,26=4/3(2);
 2/9=110/2;
 99//99;
 2/9=110/2;
 3/5=43,7=101,11=2,25=1,30=1,71=1,74=-13,75=-5,124=41/1,2,3;
 4/5=5,16=3,69=1/1;
 5/5=2,38=5/2;
 7//1,2,3,16;
 1/18=20,19=15,26=4/3(-5);
 2/9=110/2;
 6/7=2,8=2,9=2,10=2,19=2,28=1/1;
 99/9=1/99;
 Leave Link    1 at Fri Jan 24 16:52:24 2025, MaxMem=  3221225472 cpu:               1.6 elap:               0.1
 (Enter /software/gaussian/G16-C.01/avx2/g16/l101.exe)
 ------------
 with_hydride
 ------------
 Symbolic Z-matrix:
 Charge = -1 Multiplicity = 1
 C                     0.14814   2.26098  -1.21327 
 C                     0.27158   0.72058  -1.14578 
 C                     0.57121   0.17958  -2.56959 
 B                     1.56196   0.2797   -0.2739 
 C                     2.5785    1.14505   0.5253 
 C                     3.95715   0.96072  -0.11981 
 C                     4.42009  -0.52568  -0.13686 
 C                     3.28906  -1.5109   -0.51262 
 C                     1.93782  -1.16555   0.17309 
 C                     2.11461  -0.98312   1.69846 
 C                     2.51424   0.51563   1.92785 
 N                    -0.99239   0.11452  -0.56315 
 C                    -1.27986   0.53816   0.8249 
 C                    -1.87205  -0.58607   1.67783 
 C                    -3.38535  -0.49458   1.95566 
 C                    -4.29825   0.01554   0.84746 
 C                    -4.36925  -0.89295  -0.40776 
 C                    -3.07713  -1.08904  -1.20624 
 C                    -2.19127   0.18675  -1.41058 
 H                     1.05031   2.7032   -1.67537 
 H                     0.01602   2.71123  -0.22394 
 H                    -0.74343   2.56556  -1.82314 
 H                     0.3828   -0.91592  -2.599 
 H                     1.60036   0.37585  -2.85829 
 H                    -0.06331   0.67917  -3.37045 
 H                     2.30675   2.23884   0.58239 
 H                     3.92844   1.3417   -1.16694 
 H                     4.72146   1.59119   0.41802 
 H                     5.24515  -0.62804  -0.87928 
 H                     4.85383  -0.78151   0.84739 
 H                     3.60458  -2.52429  -0.20164 
 H                     3.14598  -1.5364   -1.61673 
 H                     1.16184  -1.91062  -0.0643 
 H                     1.14144  -1.19429   2.20779 
 H                     2.86548  -1.68263   2.11832 
 H                     1.7631    1.0247    2.56156 
 H                     3.49914   0.56597   2.43642 
 H                    -0.36517   0.88751   1.38831 
 H                    -1.91879   1.47042   0.85165 
 H                    -1.36772  -0.60101   2.66834 
 H                    -1.62569  -1.585     1.2362 
 H                    -3.7625   -1.48213   2.32466 
 H                    -3.5259    0.19295   2.83363 
 H                    -5.32521   0.05747   1.2558 
 H                    -4.06644   1.0718    0.55862 
 H                    -4.75272  -1.87919  -0.11827 
 H                    -5.11759  -0.4355   -1.09103 
 H                    -3.36001  -1.47427  -2.21433 
 H                    -2.47829  -1.90415  -0.7895 
 H                    -1.96831   0.21432  -2.47347 
 H                    -2.76512   1.12161  -1.24587 
 H                     0.65181   0.736    -0.69034 
 
 ITRead=  0  0  0  0  0  0  0  0  0  0  0  0  0  0  0  0  0  0  0  0
 ITRead=  0  0  0  0  0  0  0  0  0  0  0  0  0  0  0  0  0  0  0  0
 ITRead=  0  0  0  0  0  0  0  0  0  0  0  0
 MicOpt= -1 -1 -1 -1 -1 -1 -1 -1 -1 -1 -1 -1 -1 -1 -1 -1 -1 -1 -1 -1
 MicOpt= -1 -1 -1 -1 -1 -1 -1 -1 -1 -1 -1 -1 -1 -1 -1 -1 -1 -1 -1 -1
 MicOpt= -1 -1 -1 -1 -1 -1 -1 -1 -1 -1 -1 -1
 NAtoms=     52 NQM=       52 NQMF=       0 NMMI=      0 NMMIF=      0
                NMic=       0 NMicF=      0.
                    Isotopes and Nuclear Properties:
 (Nuclear quadrupole moments (NQMom) in fm**2, nuclear magnetic moments (NMagM)
  in nuclear magnetons)

  Atom         1           2           3           4           5           6           7           8           9          10
 IAtWgt=          12          12          12          11          12          12          12          12          12          12
 AtmWgt=  12.0000000  12.0000000  12.0000000  11.0093053  12.0000000  12.0000000  12.0000000  12.0000000  12.0000000  12.0000000
 NucSpn=           0           0           0           3           0           0           0           0           0           0
 AtZEff=  -0.0000000  -0.0000000  -0.0000000  -0.0000000  -0.0000000  -0.0000000  -0.0000000  -0.0000000  -0.0000000  -0.0000000
 NQMom=    0.0000000   0.0000000   0.0000000   4.0590000   0.0000000   0.0000000   0.0000000   0.0000000   0.0000000   0.0000000
 NMagM=    0.0000000   0.0000000   0.0000000   2.6886370   0.0000000   0.0000000   0.0000000   0.0000000   0.0000000   0.0000000
 AtZNuc=   6.0000000   6.0000000   6.0000000   5.0000000   6.0000000   6.0000000   6.0000000   6.0000000   6.0000000   6.0000000

  Atom        11          12          13          14          15          16          17          18          19          20
 IAtWgt=          12          14          12          12          12          12          12          12          12           1
 AtmWgt=  12.0000000  14.0030740  12.0000000  12.0000000  12.0000000  12.0000000  12.0000000  12.0000000  12.0000000   1.0078250
 NucSpn=           0           2           0           0           0           0           0           0           0           1
 AtZEff=  -0.0000000  -0.0000000  -0.0000000  -0.0000000  -0.0000000  -0.0000000  -0.0000000  -0.0000000  -0.0000000  -0.0000000
 NQMom=    0.0000000   2.0440000   0.0000000   0.0000000   0.0000000   0.0000000   0.0000000   0.0000000   0.0000000   0.0000000
 NMagM=    0.0000000   0.4037610   0.0000000   0.0000000   0.0000000   0.0000000   0.0000000   0.0000000   0.0000000   2.7928460
 AtZNuc=   6.0000000   7.0000000   6.0000000   6.0000000   6.0000000   6.0000000   6.0000000   6.0000000   6.0000000   1.0000000

  Atom        21          22          23          24          25          26          27          28          29          30
 IAtWgt=           1           1           1           1           1           1           1           1           1           1
 AtmWgt=   1.0078250   1.0078250   1.0078250   1.0078250   1.0078250   1.0078250   1.0078250   1.0078250   1.0078250   1.0078250
 NucSpn=           1           1           1           1           1           1           1           1           1           1
 AtZEff=  -0.0000000  -0.0000000  -0.0000000  -0.0000000  -0.0000000  -0.0000000  -0.0000000  -0.0000000  -0.0000000  -0.0000000
 NQMom=    0.0000000   0.0000000   0.0000000   0.0000000   0.0000000   0.0000000   0.0000000   0.0000000   0.0000000   0.0000000
 NMagM=    2.7928460   2.7928460   2.7928460   2.7928460   2.7928460   2.7928460   2.7928460   2.7928460   2.7928460   2.7928460
 AtZNuc=   1.0000000   1.0000000   1.0000000   1.0000000   1.0000000   1.0000000   1.0000000   1.0000000   1.0000000   1.0000000

  Atom        31          32          33          34          35          36          37          38          39          40
 IAtWgt=           1           1           1           1           1           1           1           1           1           1
 AtmWgt=   1.0078250   1.0078250   1.0078250   1.0078250   1.0078250   1.0078250   1.0078250   1.0078250   1.0078250   1.0078250
 NucSpn=           1           1           1           1           1           1           1           1           1           1
 AtZEff=  -0.0000000  -0.0000000  -0.0000000  -0.0000000  -0.0000000  -0.0000000  -0.0000000  -0.0000000  -0.0000000  -0.0000000
 NQMom=    0.0000000   0.0000000   0.0000000   0.0000000   0.0000000   0.0000000   0.0000000   0.0000000   0.0000000   0.0000000
 NMagM=    2.7928460   2.7928460   2.7928460   2.7928460   2.7928460   2.7928460   2.7928460   2.7928460   2.7928460   2.7928460
 AtZNuc=   1.0000000   1.0000000   1.0000000   1.0000000   1.0000000   1.0000000   1.0000000   1.0000000   1.0000000   1.0000000

  Atom        41          42          43          44          45          46          47          48          49          50
 IAtWgt=           1           1           1           1           1           1           1           1           1           1
 AtmWgt=   1.0078250   1.0078250   1.0078250   1.0078250   1.0078250   1.0078250   1.0078250   1.0078250   1.0078250   1.0078250
 NucSpn=           1           1           1           1           1           1           1           1           1           1
 AtZEff=  -0.0000000  -0.0000000  -0.0000000  -0.0000000  -0.0000000  -0.0000000  -0.0000000  -0.0000000  -0.0000000  -0.0000000
 NQMom=    0.0000000   0.0000000   0.0000000   0.0000000   0.0000000   0.0000000   0.0000000   0.0000000   0.0000000   0.0000000
 NMagM=    2.7928460   2.7928460   2.7928460   2.7928460   2.7928460   2.7928460   2.7928460   2.7928460   2.7928460   2.7928460
 AtZNuc=   1.0000000   1.0000000   1.0000000   1.0000000   1.0000000   1.0000000   1.0000000   1.0000000   1.0000000   1.0000000

  Atom        51          52
 IAtWgt=           1           1
 AtmWgt=   1.0078250   1.0078250
 NucSpn=           1           1
 AtZEff=  -0.0000000  -0.0000000
 NQMom=    0.0000000   0.0000000
 NMagM=    2.7928460   2.7928460
 AtZNuc=   1.0000000   1.0000000
 Leave Link  101 at Fri Jan 24 16:52:24 2025, MaxMem=  3221225472 cpu:              17.7 elap:               0.7
 (Enter /software/gaussian/G16-C.01/avx2/g16/l103.exe)

 GradGradGradGradGradGradGradGradGradGradGradGradGradGradGradGradGradGrad
 Berny optimization.
 Initialization pass.
                           ----------------------------
                           !    Initial Parameters    !
                           ! (Angstroms and Degrees)  !
 --------------------------                            --------------------------
 ! Name  Definition              Value          Derivative Info.                !
 --------------------------------------------------------------------------------
 ! R1    R(1,2)                  1.5468         estimate D2E/DX2                !
 ! R2    R(1,20)                 1.1059         estimate D2E/DX2                !
 ! R3    R(1,21)                 1.095          estimate D2E/DX2                !
 ! R4    R(1,22)                 1.1223         estimate D2E/DX2                !
 ! R5    R(2,3)                  1.5523         estimate D2E/DX2                !
 ! R6    R(2,4)                  1.6185         estimate D2E/DX2                !
 ! R7    R(2,12)                 1.518          estimate D2E/DX2                !
 ! R8    R(2,52)                 0.5935         estimate D2E/DX2                !
 ! R9    R(3,23)                 1.112          estimate D2E/DX2                !
 ! R10   R(3,24)                 1.0867         estimate D2E/DX2                !
 ! R11   R(3,25)                 1.1374         estimate D2E/DX2                !
 ! R12   R(4,5)                  1.5559         estimate D2E/DX2                !
 ! R13   R(4,9)                  1.5588         estimate D2E/DX2                !
 ! R14   R(4,52)                 1.1            estimate D2E/DX2                !
 ! R15   R(5,6)                  1.5332         estimate D2E/DX2                !
 ! R16   R(5,11)                 1.5387         estimate D2E/DX2                !
 ! R17   R(5,26)                 1.1285         estimate D2E/DX2                !
 ! R18   R(6,7)                  1.5569         estimate D2E/DX2                !
 ! R19   R(6,27)                 1.1147         estimate D2E/DX2                !
 ! R20   R(6,28)                 1.1274         estimate D2E/DX2                !
 ! R21   R(7,8)                  1.5463         estimate D2E/DX2                !
 ! R22   R(7,29)                 1.1146         estimate D2E/DX2                !
 ! R23   R(7,30)                 1.1056         estimate D2E/DX2                !
 ! R24   R(8,9)                  1.5541         estimate D2E/DX2                !
 ! R25   R(8,31)                 1.106          estimate D2E/DX2                !
 ! R26   R(8,32)                 1.1136         estimate D2E/DX2                !
 ! R27   R(9,10)                 1.5464         estimate D2E/DX2                !
 ! R28   R(9,33)                 1.1017         estimate D2E/DX2                !
 ! R29   R(10,11)                1.568          estimate D2E/DX2                !
 ! R30   R(10,34)                1.1185         estimate D2E/DX2                !
 ! R31   R(10,35)                1.1088         estimate D2E/DX2                !
 ! R32   R(11,36)                1.1068         estimate D2E/DX2                !
 ! R33   R(11,37)                1.1096         estimate D2E/DX2                !
 ! R34   R(12,13)                1.4795         estimate D2E/DX2                !
 ! R35   R(12,19)                1.4699         estimate D2E/DX2                !
 ! R36   R(13,14)                1.5304         estimate D2E/DX2                !
 ! R37   R(13,38)                1.1297         estimate D2E/DX2                !
 ! R38   R(13,39)                1.1305         estimate D2E/DX2                !
 ! R39   R(14,15)                1.5413         estimate D2E/DX2                !
 ! R40   R(14,40)                1.1116         estimate D2E/DX2                !
 ! R41   R(14,41)                1.1196         estimate D2E/DX2                !
 ! R42   R(15,16)                1.5237         estimate D2E/DX2                !
 ! R43   R(15,42)                1.1197         estimate D2E/DX2                !
 ! R44   R(15,43)                1.124          estimate D2E/DX2                !
 ! R45   R(16,17)                1.5511         estimate D2E/DX2                !
 ! R46   R(16,44)                1.106          estimate D2E/DX2                !
 ! R47   R(16,45)                1.1193         estimate D2E/DX2                !
 ! R48   R(17,18)                1.5315         estimate D2E/DX2                !
 ! R49   R(17,46)                1.097          estimate D2E/DX2                !
 ! R50   R(17,47)                1.1118         estimate D2E/DX2                !
 ! R51   R(18,19)                1.5666         estimate D2E/DX2                !
 ! R52   R(18,48)                1.1156         estimate D2E/DX2                !
 ! R53   R(18,49)                1.0939         estimate D2E/DX2                !
 ! R54   R(19,50)                1.0864         estimate D2E/DX2                !
 ! R55   R(19,51)                1.1092         estimate D2E/DX2                !
 ! A1    A(2,1,20)             110.5692         estimate D2E/DX2                !
 ! A2    A(2,1,21)             112.315          estimate D2E/DX2                !
 ! A3    A(2,1,22)             110.9386         estimate D2E/DX2                !
 ! A4    A(20,1,21)            108.1522         estimate D2E/DX2                !
 ! A5    A(20,1,22)            108.2087         estimate D2E/DX2                !
 ! A6    A(21,1,22)            106.4713         estimate D2E/DX2                !
 ! A7    A(1,2,3)              108.8111         estimate D2E/DX2                !
 ! A8    A(1,2,4)              111.0017         estimate D2E/DX2                !
 ! A9    A(1,2,12)             110.3579         estimate D2E/DX2                !
 ! A10   A(1,2,52)              93.3671         estimate D2E/DX2                !
 ! A11   A(3,2,4)              104.1981         estimate D2E/DX2                !
 ! A12   A(3,2,12)             111.9385         estimate D2E/DX2                !
 ! A13   A(3,2,52)             126.1044         estimate D2E/DX2                !
 ! A14   A(4,2,12)             110.385          estimate D2E/DX2                !
 ! A15   A(12,2,52)            104.435          estimate D2E/DX2                !
 ! A16   A(2,3,23)             109.5665         estimate D2E/DX2                !
 ! A17   A(2,3,24)             111.3157         estimate D2E/DX2                !
 ! A18   A(2,3,25)             112.6485         estimate D2E/DX2                !
 ! A19   A(23,3,24)            109.3517         estimate D2E/DX2                !
 ! A20   A(23,3,25)            108.6385         estimate D2E/DX2                !
 ! A21   A(24,3,25)            105.1849         estimate D2E/DX2                !
 ! A22   A(2,4,5)              130.2466         estimate D2E/DX2                !
 ! A23   A(2,4,9)              126.8171         estimate D2E/DX2                !
 ! A24   A(5,4,9)              102.1707         estimate D2E/DX2                !
 ! A25   A(5,4,52)             120.2868         estimate D2E/DX2                !
 ! A26   A(9,4,52)             133.8419         estimate D2E/DX2                !
 ! A27   A(4,5,6)              107.727          estimate D2E/DX2                !
 ! A28   A(4,5,11)             102.3229         estimate D2E/DX2                !
 ! A29   A(4,5,26)             114.0613         estimate D2E/DX2                !
 ! A30   A(6,5,11)             111.8334         estimate D2E/DX2                !
 ! A31   A(6,5,26)             110.7533         estimate D2E/DX2                !
 ! A32   A(11,5,26)            109.8962         estimate D2E/DX2                !
 ! A33   A(5,6,7)              112.7523         estimate D2E/DX2                !
 ! A34   A(5,6,27)             109.3304         estimate D2E/DX2                !
 ! A35   A(5,6,28)             109.9772         estimate D2E/DX2                !
 ! A36   A(7,6,27)             108.8857         estimate D2E/DX2                !
 ! A37   A(7,6,28)             109.7281         estimate D2E/DX2                !
 ! A38   A(27,6,28)            105.9316         estimate D2E/DX2                !
 ! A39   A(6,7,8)              113.1699         estimate D2E/DX2                !
 ! A40   A(6,7,29)             108.365          estimate D2E/DX2                !
 ! A41   A(6,7,30)             109.1362         estimate D2E/DX2                !
 ! A42   A(8,7,29)             108.7267         estimate D2E/DX2                !
 ! A43   A(8,7,30)             110.8459         estimate D2E/DX2                !
 ! A44   A(29,7,30)            106.3389         estimate D2E/DX2                !
 ! A45   A(7,8,9)              112.7775         estimate D2E/DX2                !
 ! A46   A(7,8,31)             107.8668         estimate D2E/DX2                !
 ! A47   A(7,8,32)             110.4557         estimate D2E/DX2                !
 ! A48   A(9,8,31)             109.1223         estimate D2E/DX2                !
 ! A49   A(9,8,32)             109.3193         estimate D2E/DX2                !
 ! A50   A(31,8,32)            107.1239         estimate D2E/DX2                !
 ! A51   A(4,9,8)              106.8071         estimate D2E/DX2                !
 ! A52   A(4,9,10)             101.5983         estimate D2E/DX2                !
 ! A53   A(4,9,33)             113.2927         estimate D2E/DX2                !
 ! A54   A(8,9,10)             111.2254         estimate D2E/DX2                !
 ! A55   A(8,9,33)             111.5341         estimate D2E/DX2                !
 ! A56   A(10,9,33)            111.8933         estimate D2E/DX2                !
 ! A57   A(9,10,11)            106.6311         estimate D2E/DX2                !
 ! A58   A(9,10,34)            109.1127         estimate D2E/DX2                !
 ! A59   A(9,10,35)            112.1182         estimate D2E/DX2                !
 ! A60   A(11,10,34)           109.6084         estimate D2E/DX2                !
 ! A61   A(11,10,35)           112.0262         estimate D2E/DX2                !
 ! A62   A(34,10,35)           107.3179         estimate D2E/DX2                !
 ! A63   A(5,11,10)            105.5629         estimate D2E/DX2                !
 ! A64   A(5,11,36)            111.2299         estimate D2E/DX2                !
 ! A65   A(5,11,37)            111.233          estimate D2E/DX2                !
 ! A66   A(10,11,36)           110.5145         estimate D2E/DX2                !
 ! A67   A(10,11,37)           109.6728         estimate D2E/DX2                !
 ! A68   A(36,11,37)           108.609          estimate D2E/DX2                !
 ! A69   A(2,12,13)            114.0515         estimate D2E/DX2                !
 ! A70   A(2,12,19)            115.9905         estimate D2E/DX2                !
 ! A71   A(13,12,19)           111.6135         estimate D2E/DX2                !
 ! A72   A(12,13,14)           112.8135         estimate D2E/DX2                !
 ! A73   A(12,13,38)           113.5252         estimate D2E/DX2                !
 ! A74   A(12,13,39)           111.602          estimate D2E/DX2                !
 ! A75   A(14,13,38)           105.22           estimate D2E/DX2                !
 ! A76   A(14,13,39)           111.9561         estimate D2E/DX2                !
 ! A77   A(38,13,39)           100.9993         estimate D2E/DX2                !
 ! A78   A(13,14,15)           115.8987         estimate D2E/DX2                !
 ! A79   A(13,14,40)           109.3253         estimate D2E/DX2                !
 ! A80   A(13,14,41)           110.5136         estimate D2E/DX2                !
 ! A81   A(15,14,40)           106.5965         estimate D2E/DX2                !
 ! A82   A(15,14,41)           109.8825         estimate D2E/DX2                !
 ! A83   A(40,14,41)           103.8657         estimate D2E/DX2                !
 ! A84   A(14,15,16)           118.49           estimate D2E/DX2                !
 ! A85   A(14,15,42)           109.7413         estimate D2E/DX2                !
 ! A86   A(14,15,43)           107.4513         estimate D2E/DX2                !
 ! A87   A(16,15,42)           109.4608         estimate D2E/DX2                !
 ! A88   A(16,15,43)           106.7632         estimate D2E/DX2                !
 ! A89   A(42,15,43)           103.8845         estimate D2E/DX2                !
 ! A90   A(15,16,17)           114.8282         estimate D2E/DX2                !
 ! A91   A(15,16,44)           107.4867         estimate D2E/DX2                !
 ! A92   A(15,16,45)           112.3048         estimate D2E/DX2                !
 ! A93   A(17,16,44)           106.1692         estimate D2E/DX2                !
 ! A94   A(17,16,45)           110.6934         estimate D2E/DX2                !
 ! A95   A(44,16,45)           104.5848         estimate D2E/DX2                !
 ! A96   A(16,17,18)           117.2754         estimate D2E/DX2                !
 ! A97   A(16,17,46)           109.2087         estimate D2E/DX2                !
 ! A98   A(16,17,47)           106.6876         estimate D2E/DX2                !
 ! A99   A(18,17,46)           108.5041         estimate D2E/DX2                !
 ! A100  A(18,17,47)           107.4655         estimate D2E/DX2                !
 ! A101  A(46,17,47)           107.2642         estimate D2E/DX2                !
 ! A102  A(17,18,19)           116.156          estimate D2E/DX2                !
 ! A103  A(17,18,48)           107.541          estimate D2E/DX2                !
 ! A104  A(17,18,49)           111.0161         estimate D2E/DX2                !
 ! A105  A(19,18,48)           107.862          estimate D2E/DX2                !
 ! A106  A(19,18,49)           110.3011         estimate D2E/DX2                !
 ! A107  A(48,18,49)           103.0461         estimate D2E/DX2                !
 ! A108  A(12,19,18)           110.2421         estimate D2E/DX2                !
 ! A109  A(12,19,50)           113.4478         estimate D2E/DX2                !
 ! A110  A(12,19,51)           112.1949         estimate D2E/DX2                !
 ! A111  A(18,19,50)           105.3275         estimate D2E/DX2                !
 ! A112  A(18,19,51)           111.9905         estimate D2E/DX2                !
 ! A113  A(50,19,51)           103.3009         estimate D2E/DX2                !
 ! D1    D(20,1,2,3)           -54.4991         estimate D2E/DX2                !
 ! D2    D(20,1,2,4)            59.6006         estimate D2E/DX2                !
 ! D3    D(20,1,2,12)         -177.6872         estimate D2E/DX2                !
 ! D4    D(20,1,2,52)           75.5637         estimate D2E/DX2                !
 ! D5    D(21,1,2,3)          -175.4107         estimate D2E/DX2                !
 ! D6    D(21,1,2,4)           -61.311          estimate D2E/DX2                !
 ! D7    D(21,1,2,12)           61.4012         estimate D2E/DX2                !
 ! D8    D(21,1,2,52)          -45.3479         estimate D2E/DX2                !
 ! D9    D(22,1,2,3)            65.5634         estimate D2E/DX2                !
 ! D10   D(22,1,2,4)           179.6631         estimate D2E/DX2                !
 ! D11   D(22,1,2,12)          -57.6247         estimate D2E/DX2                !
 ! D12   D(22,1,2,52)         -164.3738         estimate D2E/DX2                !
 ! D13   D(1,2,3,23)          -164.25           estimate D2E/DX2                !
 ! D14   D(1,2,3,24)            74.6734         estimate D2E/DX2                !
 ! D15   D(1,2,3,25)           -43.1972         estimate D2E/DX2                !
 ! D16   D(4,2,3,23)            77.2778         estimate D2E/DX2                !
 ! D17   D(4,2,3,24)           -43.7988         estimate D2E/DX2                !
 ! D18   D(4,2,3,25)          -161.6694         estimate D2E/DX2                !
 ! D19   D(12,2,3,23)          -42.0139         estimate D2E/DX2                !
 ! D20   D(12,2,3,24)         -163.0905         estimate D2E/DX2                !
 ! D21   D(12,2,3,25)           79.0389         estimate D2E/DX2                !
 ! D22   D(52,2,3,23)           86.77           estimate D2E/DX2                !
 ! D23   D(52,2,3,24)          -34.3066         estimate D2E/DX2                !
 ! D24   D(52,2,3,25)         -152.1772         estimate D2E/DX2                !
 ! D25   D(1,2,4,5)              3.9721         estimate D2E/DX2                !
 ! D26   D(1,2,4,9)            172.1128         estimate D2E/DX2                !
 ! D27   D(3,2,4,5)            120.9344         estimate D2E/DX2                !
 ! D28   D(3,2,4,9)            -70.9249         estimate D2E/DX2                !
 ! D29   D(12,2,4,5)          -118.7245         estimate D2E/DX2                !
 ! D30   D(12,2,4,9)            49.4162         estimate D2E/DX2                !
 ! D31   D(1,2,12,13)          -62.0315         estimate D2E/DX2                !
 ! D32   D(1,2,12,19)           69.7533         estimate D2E/DX2                !
 ! D33   D(3,2,12,13)          176.6203         estimate D2E/DX2                !
 ! D34   D(3,2,12,19)          -51.5949         estimate D2E/DX2                !
 ! D35   D(4,2,12,13)           61.0409         estimate D2E/DX2                !
 ! D36   D(4,2,12,19)         -167.1743         estimate D2E/DX2                !
 ! D37   D(52,2,12,13)          37.1872         estimate D2E/DX2                !
 ! D38   D(52,2,12,19)         168.972          estimate D2E/DX2                !
 ! D39   D(2,4,5,6)           -116.6626         estimate D2E/DX2                !
 ! D40   D(2,4,5,11)           125.3364         estimate D2E/DX2                !
 ! D41   D(2,4,5,26)             6.7141         estimate D2E/DX2                !
 ! D42   D(9,4,5,6)             73.0266         estimate D2E/DX2                !
 ! D43   D(9,4,5,11)           -44.9744         estimate D2E/DX2                !
 ! D44   D(9,4,5,26)          -163.5967         estimate D2E/DX2                !
 ! D45   D(52,4,5,6)          -125.7891         estimate D2E/DX2                !
 ! D46   D(52,4,5,11)          116.2099         estimate D2E/DX2                !
 ! D47   D(52,4,5,26)           -2.4124         estimate D2E/DX2                !
 ! D48   D(2,4,9,8)            116.5669         estimate D2E/DX2                !
 ! D49   D(2,4,9,10)          -126.8132         estimate D2E/DX2                !
 ! D50   D(2,4,9,33)            -6.6286         estimate D2E/DX2                !
 ! D51   D(5,4,9,8)            -72.6671         estimate D2E/DX2                !
 ! D52   D(5,4,9,10)            43.9528         estimate D2E/DX2                !
 ! D53   D(5,4,9,33)           164.1374         estimate D2E/DX2                !
 ! D54   D(52,4,9,8)           130.0474         estimate D2E/DX2                !
 ! D55   D(52,4,9,10)         -113.3327         estimate D2E/DX2                !
 ! D56   D(52,4,9,33)            6.8519         estimate D2E/DX2                !
 ! D57   D(4,5,6,7)            -58.4136         estimate D2E/DX2                !
 ! D58   D(4,5,6,27)            62.8567         estimate D2E/DX2                !
 ! D59   D(4,5,6,28)           178.7713         estimate D2E/DX2                !
 ! D60   D(11,5,6,7)            53.2678         estimate D2E/DX2                !
 ! D61   D(11,5,6,27)          174.5381         estimate D2E/DX2                !
 ! D62   D(11,5,6,28)          -69.5473         estimate D2E/DX2                !
 ! D63   D(26,5,6,7)           176.2154         estimate D2E/DX2                !
 ! D64   D(26,5,6,27)          -62.5143         estimate D2E/DX2                !
 ! D65   D(26,5,6,28)           53.4003         estimate D2E/DX2                !
 ! D66   D(4,5,11,10)           28.059          estimate D2E/DX2                !
 ! D67   D(4,5,11,36)          -91.8392         estimate D2E/DX2                !
 ! D68   D(4,5,11,37)          146.9484         estimate D2E/DX2                !
 ! D69   D(6,5,11,10)          -86.9822         estimate D2E/DX2                !
 ! D70   D(6,5,11,36)          153.1196         estimate D2E/DX2                !
 ! D71   D(6,5,11,37)           31.9072         estimate D2E/DX2                !
 ! D72   D(26,5,11,10)         149.5849         estimate D2E/DX2                !
 ! D73   D(26,5,11,36)          29.6867         estimate D2E/DX2                !
 ! D74   D(26,5,11,37)         -91.5257         estimate D2E/DX2                !
 ! D75   D(5,6,7,8)             41.9012         estimate D2E/DX2                !
 ! D76   D(5,6,7,29)           162.5678         estimate D2E/DX2                !
 ! D77   D(5,6,7,30)           -82.0316         estimate D2E/DX2                !
 ! D78   D(27,6,7,8)           -79.6216         estimate D2E/DX2                !
 ! D79   D(27,6,7,29)           41.045          estimate D2E/DX2                !
 ! D80   D(27,6,7,30)          156.4456         estimate D2E/DX2                !
 ! D81   D(28,6,7,8)           164.8554         estimate D2E/DX2                !
 ! D82   D(28,6,7,29)          -74.478          estimate D2E/DX2                !
 ! D83   D(28,6,7,30)           40.9226         estimate D2E/DX2                !
 ! D84   D(6,7,8,9)            -42.2107         estimate D2E/DX2                !
 ! D85   D(6,7,8,31)          -162.7848         estimate D2E/DX2                !
 ! D86   D(6,7,8,32)            80.4447         estimate D2E/DX2                !
 ! D87   D(29,7,8,9)          -162.6719         estimate D2E/DX2                !
 ! D88   D(29,7,8,31)           76.754          estimate D2E/DX2                !
 ! D89   D(29,7,8,32)          -40.0164         estimate D2E/DX2                !
 ! D90   D(30,7,8,9)            80.781          estimate D2E/DX2                !
 ! D91   D(30,7,8,31)          -39.7931         estimate D2E/DX2                !
 ! D92   D(30,7,8,32)         -156.5636         estimate D2E/DX2                !
 ! D93   D(7,8,9,4)             58.8452         estimate D2E/DX2                !
 ! D94   D(7,8,9,10)           -51.1912         estimate D2E/DX2                !
 ! D95   D(7,8,9,33)          -176.8732         estimate D2E/DX2                !
 ! D96   D(31,8,9,4)           178.6981         estimate D2E/DX2                !
 ! D97   D(31,8,9,10)           68.6617         estimate D2E/DX2                !
 ! D98   D(31,8,9,33)          -57.0203         estimate D2E/DX2                !
 ! D99   D(32,8,9,4)           -64.4439         estimate D2E/DX2                !
 ! D100  D(32,8,9,10)         -174.4803         estimate D2E/DX2                !
 ! D101  D(32,8,9,33)           59.8376         estimate D2E/DX2                !
 ! D102  D(4,9,10,11)          -26.4491         estimate D2E/DX2                !
 ! D103  D(4,9,10,34)           91.8572         estimate D2E/DX2                !
 ! D104  D(4,9,10,35)         -149.3984         estimate D2E/DX2                !
 ! D105  D(8,9,10,11)           86.9024         estimate D2E/DX2                !
 ! D106  D(8,9,10,34)         -154.7913         estimate D2E/DX2                !
 ! D107  D(8,9,10,35)          -36.0469         estimate D2E/DX2                !
 ! D108  D(33,9,10,11)        -147.6155         estimate D2E/DX2                !
 ! D109  D(33,9,10,34)         -29.3093         estimate D2E/DX2                !
 ! D110  D(33,9,10,35)          89.4352         estimate D2E/DX2                !
 ! D111  D(9,10,11,5)           -0.9225         estimate D2E/DX2                !
 ! D112  D(9,10,11,36)         119.4456         estimate D2E/DX2                !
 ! D113  D(9,10,11,37)        -120.8445         estimate D2E/DX2                !
 ! D114  D(34,10,11,5)        -118.9031         estimate D2E/DX2                !
 ! D115  D(34,10,11,36)          1.465          estimate D2E/DX2                !
 ! D116  D(34,10,11,37)        121.1749         estimate D2E/DX2                !
 ! D117  D(35,10,11,5)         122.0843         estimate D2E/DX2                !
 ! D118  D(35,10,11,36)       -117.5475         estimate D2E/DX2                !
 ! D119  D(35,10,11,37)          2.1624         estimate D2E/DX2                !
 ! D120  D(2,12,13,14)        -142.9007         estimate D2E/DX2                !
 ! D121  D(2,12,13,38)         -23.3138         estimate D2E/DX2                !
 ! D122  D(2,12,13,39)          90.0265         estimate D2E/DX2                !
 ! D123  D(19,12,13,14)         83.2308         estimate D2E/DX2                !
 ! D124  D(19,12,13,38)       -157.1824         estimate D2E/DX2                !
 ! D125  D(19,12,13,39)        -43.8421         estimate D2E/DX2                !
 ! D126  D(2,12,19,18)         145.4274         estimate D2E/DX2                !
 ! D127  D(2,12,19,50)          27.5852         estimate D2E/DX2                !
 ! D128  D(2,12,19,51)         -89.0171         estimate D2E/DX2                !
 ! D129  D(13,12,19,18)        -81.6615         estimate D2E/DX2                !
 ! D130  D(13,12,19,50)        160.4964         estimate D2E/DX2                !
 ! D131  D(13,12,19,51)         43.894          estimate D2E/DX2                !
 ! D132  D(12,13,14,15)       -104.4946         estimate D2E/DX2                !
 ! D133  D(12,13,14,40)        135.0575         estimate D2E/DX2                !
 ! D134  D(12,13,14,41)         21.3316         estimate D2E/DX2                !
 ! D135  D(38,13,14,15)        131.2273         estimate D2E/DX2                !
 ! D136  D(38,13,14,40)         10.7794         estimate D2E/DX2                !
 ! D137  D(38,13,14,41)       -102.9466         estimate D2E/DX2                !
 ! D138  D(39,13,14,15)         22.3903         estimate D2E/DX2                !
 ! D139  D(39,13,14,40)        -98.0575         estimate D2E/DX2                !
 ! D140  D(39,13,14,41)        148.2165         estimate D2E/DX2                !
 ! D141  D(13,14,15,16)         37.4343         estimate D2E/DX2                !
 ! D142  D(13,14,15,42)        164.1256         estimate D2E/DX2                !
 ! D143  D(13,14,15,43)        -83.5368         estimate D2E/DX2                !
 ! D144  D(40,14,15,16)        159.3442         estimate D2E/DX2                !
 ! D145  D(40,14,15,42)        -73.9645         estimate D2E/DX2                !
 ! D146  D(40,14,15,43)         38.3732         estimate D2E/DX2                !
 ! D147  D(41,14,15,16)        -88.7116         estimate D2E/DX2                !
 ! D148  D(41,14,15,42)         37.9797         estimate D2E/DX2                !
 ! D149  D(41,14,15,43)        150.3174         estimate D2E/DX2                !
 ! D150  D(14,15,16,17)         65.0891         estimate D2E/DX2                !
 ! D151  D(14,15,16,44)       -177.0412         estimate D2E/DX2                !
 ! D152  D(14,15,16,45)        -62.5468         estimate D2E/DX2                !
 ! D153  D(42,15,16,17)        -61.7359         estimate D2E/DX2                !
 ! D154  D(42,15,16,44)         56.1338         estimate D2E/DX2                !
 ! D155  D(42,15,16,45)        170.6282         estimate D2E/DX2                !
 ! D156  D(43,15,16,17)       -173.5895         estimate D2E/DX2                !
 ! D157  D(43,15,16,44)        -55.7198         estimate D2E/DX2                !
 ! D158  D(43,15,16,45)         58.7747         estimate D2E/DX2                !
 ! D159  D(15,16,17,18)        -63.3698         estimate D2E/DX2                !
 ! D160  D(15,16,17,46)         60.5315         estimate D2E/DX2                !
 ! D161  D(15,16,17,47)        176.1601         estimate D2E/DX2                !
 ! D162  D(44,16,17,18)        178.0186         estimate D2E/DX2                !
 ! D163  D(44,16,17,46)        -58.0802         estimate D2E/DX2                !
 ! D164  D(44,16,17,47)         57.5485         estimate D2E/DX2                !
 ! D165  D(45,16,17,18)         65.0773         estimate D2E/DX2                !
 ! D166  D(45,16,17,46)       -171.0215         estimate D2E/DX2                !
 ! D167  D(45,16,17,47)        -55.3928         estimate D2E/DX2                !
 ! D168  D(16,17,18,19)        -41.3027         estimate D2E/DX2                !
 ! D169  D(16,17,18,48)       -162.2076         estimate D2E/DX2                !
 ! D170  D(16,17,18,49)         85.765          estimate D2E/DX2                !
 ! D171  D(46,17,18,19)       -165.5596         estimate D2E/DX2                !
 ! D172  D(46,17,18,48)         73.5354         estimate D2E/DX2                !
 ! D173  D(46,17,18,49)        -38.492          estimate D2E/DX2                !
 ! D174  D(47,17,18,19)         78.7578         estimate D2E/DX2                !
 ! D175  D(47,17,18,48)        -42.1471         estimate D2E/DX2                !
 ! D176  D(47,17,18,49)       -154.1745         estimate D2E/DX2                !
 ! D177  D(17,18,19,12)        106.651          estimate D2E/DX2                !
 ! D178  D(17,18,19,50)       -130.6096         estimate D2E/DX2                !
 ! D179  D(17,18,19,51)        -19.0203         estimate D2E/DX2                !
 ! D180  D(48,18,19,12)       -132.6159         estimate D2E/DX2                !
 ! D181  D(48,18,19,50)         -9.8764         estimate D2E/DX2                !
 ! D182  D(48,18,19,51)        101.7129         estimate D2E/DX2                !
 ! D183  D(49,18,19,12)        -20.7713         estimate D2E/DX2                !
 ! D184  D(49,18,19,50)        101.9681         estimate D2E/DX2                !
 ! D185  D(49,18,19,51)       -146.4426         estimate D2E/DX2                !
 --------------------------------------------------------------------------------
 Trust Radius=3.00D-01 FncErr=1.00D-07 GrdErr=1.00D-06 EigMax=2.50D+02 EigMin=1.00D-04
 Number of steps in this run=    312 maximum allowed number of steps=    312.
 GradGradGradGradGradGradGradGradGradGradGradGradGradGradGradGradGradGrad

 Leave Link  103 at Fri Jan 24 16:52:25 2025, MaxMem=  3221225472 cpu:               0.6 elap:               0.0
 (Enter /software/gaussian/G16-C.01/avx2/g16/l202.exe)
 Stoichiometry    C17H33BN(1-)
 Framework group  C1[X(C17H33BN)]
 Deg. of freedom   150
 Full point group                 C1      NOp   1
 Largest Abelian subgroup         C1      NOp   1
 Largest concise Abelian subgroup C1      NOp   1
                         Standard orientation:                         
 ---------------------------------------------------------------------
 Center     Atomic      Atomic             Coordinates (Angstroms)
 Number     Number       Type             X           Y           Z
 ---------------------------------------------------------------------
      1          6           0        0.219252    1.764108    1.859322
      2          6           0        0.264852    1.288547    0.388133
      3          6           0        0.547674    2.511778   -0.524784
      4          5           0        1.524940    0.304736    0.135316
      5          6           0        2.577539   -0.257442    1.133760
      6          6           0        3.950019    0.287374    0.721103
      7          6           0        4.338014   -0.099348   -0.736255
      8          6           0        3.161894    0.025199   -1.732394
      9          6           0        1.824550   -0.516674   -1.155165
     10          6           0        1.998812   -1.942558   -0.582649
     11          6           0        2.471303   -1.774982    0.903033
     12          7           0       -1.032240    0.592289    0.017750
     13          6           0       -1.308527   -0.627791    0.807595
     14          6           0       -1.962683   -1.735666   -0.021115
     15          6           0       -3.471541   -1.948220    0.210852
     16          6           0       -4.349390   -0.725986    0.450116
     17          6           0       -4.456409    0.244983   -0.754757
     18          6           0       -3.169776    0.936322   -1.215457
     19          6           0       -2.219599    1.453015   -0.082175
     20          1           0        1.145890    2.308201    2.120682
     21          1           0        0.102446    0.932272    2.561722
     22          1           0       -0.651336    2.451035    2.031987
     23          1           0        0.304836    2.253867   -1.578823
     24          1           0        1.587494    2.820953   -0.460097
     25          1           0       -0.054993    3.429201   -0.226944
     26          1           0        2.360506   -0.017223    2.214823
     27          1           0        3.948293    1.398375    0.811269
     28          1           0        4.740900   -0.079852    1.435649
     29          1           0        5.162461    0.572351   -1.070179
     30          1           0        4.750997   -1.124900   -0.741356
     31          1           0        3.423899   -0.549472   -2.640325
     32          1           0        3.026010    1.085827   -2.043497
     33          1           0        1.014019   -0.469204   -1.899758
     34          1           0        1.012485   -2.469530   -0.605685
     35          1           0        2.710515   -2.548003   -1.179563
     36          1           0        1.741879   -2.235679    1.596324
     37          1           0        3.453645   -2.272162    1.040935
     38          1           0       -0.381735   -1.097220    1.251248
     39          1           0       -1.900126   -0.393570    1.742050
     40          1           0       -1.467177   -2.704901    0.204143
     41          1           0       -1.763380   -1.579517   -1.111750
     42          1           0       -3.900458   -2.557761   -0.624700
     43          1           0       -3.584053   -2.609677    1.112567
     44          1           0       -5.376002   -1.087472    0.646480
     45          1           0       -4.062789   -0.172543    1.379850
     46          1           0       -4.890970   -0.287422   -1.609869
     47          1           0       -5.175736    1.040221   -0.461012
     48          1           0       -3.464029    1.811976   -1.841009
     49          1           0       -2.615674    0.306387   -1.917484
     50          1           0       -1.987573    2.480445   -0.348185
     51          1           0       -2.747103    1.553596    0.888398
     52          1           0        0.641946    0.845743    0.506307
 ---------------------------------------------------------------------
 Rotational constants (GHZ):           0.7148909           0.2266566           0.2065779
 Leave Link  202 at Fri Jan 24 16:52:25 2025, MaxMem=  3221225472 cpu:               0.1 elap:               0.0
 (Enter /software/gaussian/G16-C.01/avx2/g16/l301.exe)
 Standard basis: def2SVP (5D, 7F)
 Ernie: Thresh=  0.10000D-02 Tol=  0.10000D-05 Strict=F.
 There are   450 symmetry adapted cartesian basis functions of A   symmetry.
 There are   431 symmetry adapted basis functions of A   symmetry.
   431 basis functions,   706 primitive gaussians,   450 cartesian basis functions
    74 alpha electrons       74 beta electrons
       nuclear repulsion energy      1618.0964656107 Hartrees.
 IExCor= 1009 DFT=T Ex+Corr=PBE1PBE ExCW=0 ScaHFX=  0.250000
 ScaDFX=  0.750000  0.750000  1.000000  1.000000 ScalE2=  1.000000  1.000000
 IRadAn=      5 IRanWt=     -1 IRanGd=            0 ICorTp=0 IEmpDi=141
 NAtoms=   52 NActive=   52 NUniq=   52 SFac= 1.00D+00 NAtFMM=   60 NAOKFM=F Big=F
 Integral buffers will be    131072 words long.
 Raffenetti 2 integral format.
 Two-electron integral symmetry is turned on.
 R6Disp:  Grimme-D3(BJ) Dispersion energy=       -0.0602045239 Hartrees.
 Nuclear repulsion after empirical dispersion term =     1618.0362610868 Hartrees.
 Leave Link  301 at Fri Jan 24 16:52:25 2025, MaxMem=  3221225472 cpu:               1.3 elap:               0.1
 (Enter /software/gaussian/G16-C.01/avx2/g16/l302.exe)
 NPDir=0 NMtPBC=     1 NCelOv=     1 NCel=       1 NClECP=     1 NCelD=      1
         NCelK=      1 NCelE2=     1 NClLst=     1 CellRange=     0.0.
 One-electron integrals computed using PRISM.
 One-electron integral symmetry used in STVInt
   1 Symmetry operations used in ECPInt.
 ECPInt:  NShTT=   22791 NPrTT=   77767 LenC2=   21357 LenP2D=   53246.
 LDataN:  DoStor=T MaxTD1= 4 Len=   56
 NBasis=   431 RedAO= T EigKep=  6.16D-05  NBF=   431
 NBsUse=   431 1.00D-06 EigRej= -1.00D+00 NBFU=   431
 Precomputing XC quadrature grid using
 IXCGrd= 4 IRadAn=           5 IRanWt=          -1 IRanGd=           0 AccXCQ= 0.00D+00.
 Generated NRdTot=       0 NPtTot=           0 NUsed=           0 NTot=          32
 NSgBfM=   449   449   449   449   449 MxSgAt=    52 MxSgA2=    52.
 Leave Link  302 at Fri Jan 24 16:52:25 2025, MaxMem=  3221225472 cpu:              17.0 elap:               0.7
 (Enter /software/gaussian/G16-C.01/avx2/g16/l303.exe)
 DipDrv:  MaxL=1.
 Leave Link  303 at Fri Jan 24 16:52:26 2025, MaxMem=  3221225472 cpu:               2.3 elap:               0.1
 (Enter /software/gaussian/G16-C.01/avx2/g16/l401.exe)
 ExpMin= 8.36D-02 ExpMax= 1.71D+03 ExpMxC= 2.58D+02 IAcc=3 IRadAn=         5 AccDes= 0.00D+00
 Harris functional with IExCor= 1009 and IRadAn=       5 diagonalized for initial guess.
 HarFok:  IExCor= 1009 AccDes= 0.00D+00 IRadAn=         5 IDoV= 1 UseB2=F ITyADJ=14
 ICtDFT=  3500011 ScaDFX=  1.000000  1.000000  1.000000  1.000000
 FoFCou: FMM=F IPFlag=           0 FMFlag=      100000 FMFlg1=           0
         NFxFlg=           0 DoJE=T BraDBF=F KetDBF=T FulRan=T
         wScrn=  0.000000 ICntrl=       500 IOpCl=  0 I1Cent=   200000004 NGrid=           0
         NMat0=    1 NMatS0=      1 NMatT0=    0 NMatD0=    1 NMtDS0=    0 NMtDT0=    0
 Petite list used in FoFCou.
 Harris En= -745.681535738848    
 JPrj=0 DoOrth=F DoCkMO=F.
 Leave Link  401 at Fri Jan 24 16:52:27 2025, MaxMem=  3221225472 cpu:              40.0 elap:               1.7
 (Enter /software/gaussian/G16-C.01/avx2/g16/l502.exe)
 Integral symmetry usage will be decided dynamically.
 Closed shell SCF:
 Using DIIS extrapolation, IDIIS=  1040.
 NGot=  3221225472 LenX=  3220803250 LenY=  3220600300
 Requested convergence on RMS density matrix=1.00D-08 within 128 cycles.
 Requested convergence on MAX density matrix=1.00D-06.
 Requested convergence on             energy=1.00D-06.
 No special actions if energy rises.
 Fock matrices will be formed incrementally for  20 cycles.
 Integral accuracy reduced to 1.0D-05 until final iterations.

 Cycle   1  Pass 0  IDiag  1:
 FoFJK:  IHMeth= 1 ICntrl=       0 DoSepK=F KAlg= 0 I1Cent=           0 FoldK=F
 IRaf= 880000000 NMat=       1 IRICut=       1 DoRegI=T DoRafI=F ISym2E= 0 IDoP0=0 IntGTp=1.
 FoFCou: FMM=F IPFlag=           0 FMFlag=      100000 FMFlg1=           0
         NFxFlg=           0 DoJE=F BraDBF=F KetDBF=F FulRan=T
         wScrn=  0.000000 ICntrl=         0 IOpCl=  0 I1Cent=           0 NGrid=           0
         NMat0=    1 NMatS0=      1 NMatT0=    0 NMatD0=    1 NMtDS0=    0 NMtDT0=    0
 Symmetry not used in FoFCou.
 E= -744.309726629673    
 DIIS: error= 2.28D-02 at cycle   1 NSaved=   1.
 NSaved= 1 IEnMin= 1 EnMin= -744.309726629673     IErMin= 1 ErrMin= 2.28D-02
 ErrMax= 2.28D-02  0.00D+00 EMaxC= 1.00D-01 BMatC= 6.71D-01 BMatP= 6.71D-01
 IDIUse=3 WtCom= 7.72D-01 WtEn= 2.28D-01
 Coeff-Com:  0.100D+01
 Coeff-En:   0.100D+01
 Coeff:      0.100D+01
 Gap=     0.153 Goal=   None    Shift=    0.000
 GapD=    0.153 DampG=1.000 DampE=0.500 DampFc=0.5000 IDamp=-1.
 Damping current iteration by 5.00D-01
 RMSDP=3.55D-02 MaxDP=2.58D+00              OVMax= 9.89D-01

 Cycle   2  Pass 0  IDiag  1:
 RMSU=  1.77D-02    CP:  9.23D-01
 E= -743.787196843442     Delta-E=        0.522529786231 Rises=F Damp=T
 DIIS: error= 2.14D-02 at cycle   2 NSaved=   2.
 NSaved= 2 IEnMin= 1 EnMin= -744.309726629673     IErMin= 2 ErrMin= 2.14D-02
 ErrMax= 2.14D-02  0.00D+00 EMaxC= 1.00D-01 BMatC= 3.20D-01 BMatP= 6.71D-01
 IDIUse=3 WtCom= 7.86D-01 WtEn= 2.14D-01
 Coeff-Com:  0.380D+00 0.620D+00
 Coeff-En:   0.663D+00 0.337D+00
 Coeff:      0.440D+00 0.560D+00
 Gap=    -0.295 Goal=   None    Shift=    0.000
 RMSDP=1.81D-02 MaxDP=1.28D+00 DE= 5.23D-01 OVMax= 9.81D-01

 Cycle   3  Pass 0  IDiag  1:
 RMSU=  4.96D-03    CP:  8.02D-01  2.76D-02
 E= -744.852030241842     Delta-E=       -1.064833398400 Rises=F Damp=F
 DIIS: error= 1.46D-02 at cycle   3 NSaved=   3.
 NSaved= 3 IEnMin= 3 EnMin= -744.852030241842     IErMin= 3 ErrMin= 1.46D-02
 ErrMax= 1.46D-02  0.00D+00 EMaxC= 1.00D-01 BMatC= 2.24D-01 BMatP= 3.20D-01
 IDIUse=3 WtCom= 8.54D-01 WtEn= 1.46D-01
 Coeff-Com:  0.180D+00 0.414D+00 0.406D+00
 Coeff-En:   0.000D+00 0.403D-01 0.960D+00
 Coeff:      0.153D+00 0.359D+00 0.487D+00
 Gap=     0.078 Goal=   None    Shift=    0.000
 RMSDP=3.88D-03 MaxDP=2.70D-01 DE=-1.06D+00 OVMax= 1.70D-01

 Cycle   4  Pass 0  IDiag  1:
 RMSU=  3.69D-03    CP:  8.44D-01  2.74D-02  8.76D-01
 E= -745.098596086447     Delta-E=       -0.246565844604 Rises=F Damp=F
 DIIS: error= 3.39D-03 at cycle   4 NSaved=   4.
 NSaved= 4 IEnMin= 4 EnMin= -745.098596086447     IErMin= 4 ErrMin= 3.39D-03
 ErrMax= 3.39D-03  0.00D+00 EMaxC= 1.00D-01 BMatC= 1.45D-02 BMatP= 2.24D-01
 IDIUse=3 WtCom= 9.66D-01 WtEn= 3.39D-02
 Coeff-Com: -0.210D-01 0.145D+00 0.140D+00 0.736D+00
 Coeff-En:   0.000D+00 0.000D+00 0.000D+00 0.100D+01
 Coeff:     -0.203D-01 0.140D+00 0.135D+00 0.745D+00
 Gap=     0.074 Goal=   None    Shift=    0.000
 RMSDP=8.67D-04 MaxDP=5.50D-02 DE=-2.47D-01 OVMax= 3.42D-02

 Cycle   5  Pass 0  IDiag  1:
 RMSU=  8.17D-04    CP:  8.44D-01  3.18D-02  8.77D-01  1.08D+00
 E= -745.113198515915     Delta-E=       -0.014602429468 Rises=F Damp=F
 DIIS: error= 2.22D-03 at cycle   5 NSaved=   5.
 NSaved= 5 IEnMin= 5 EnMin= -745.113198515915     IErMin= 5 ErrMin= 2.22D-03
 ErrMax= 2.22D-03  0.00D+00 EMaxC= 1.00D-01 BMatC= 4.06D-03 BMatP= 1.45D-02
 IDIUse=3 WtCom= 9.78D-01 WtEn= 2.22D-02
 Coeff-Com: -0.374D-01 0.354D-01-0.556D-01 0.231D+00 0.827D+00
 Coeff-En:   0.000D+00 0.000D+00 0.000D+00 0.000D+00 0.100D+01
 Coeff:     -0.365D-01 0.346D-01-0.543D-01 0.226D+00 0.831D+00
 Gap=     0.052 Goal=   None    Shift=    0.000
 RMSDP=8.82D-04 MaxDP=5.40D-02 DE=-1.46D-02 OVMax= 4.72D-02

 Cycle   6  Pass 0  IDiag  1:
 RMSU=  4.70D-04    CP:  8.40D-01  3.58D-02  8.89D-01  1.26D+00  1.38D+00
 E= -745.118141544537     Delta-E=       -0.004943028622 Rises=F Damp=F
 DIIS: error= 6.92D-04 at cycle   6 NSaved=   6.
 NSaved= 6 IEnMin= 6 EnMin= -745.118141544537     IErMin= 6 ErrMin= 6.92D-04
 ErrMax= 6.92D-04  0.00D+00 EMaxC= 1.00D-01 BMatC= 3.77D-04 BMatP= 4.06D-03
 IDIUse=3 WtCom= 9.93D-01 WtEn= 6.92D-03
 Coeff-Com: -0.160D-01 0.689D-02-0.460D-01 0.239D-01 0.415D+00 0.616D+00
 Coeff-En:   0.000D+00 0.000D+00 0.000D+00 0.000D+00 0.000D+00 0.100D+01
 Coeff:     -0.159D-01 0.684D-02-0.457D-01 0.237D-01 0.412D+00 0.619D+00
 Gap=     0.052 Goal=   None    Shift=    0.000
 RMSDP=3.66D-04 MaxDP=4.00D-02 DE=-4.94D-03 OVMax= 1.28D-02

 Cycle   7  Pass 0  IDiag  1:
 RMSU=  2.29D-04    CP:  8.46D-01  3.68D-02  8.88D-01  1.31D+00  1.54D+00
                    CP:  1.05D+00
 E= -745.118528365163     Delta-E=       -0.000386820626 Rises=F Damp=F
 DIIS: error= 2.71D-04 at cycle   7 NSaved=   7.
 NSaved= 7 IEnMin= 7 EnMin= -745.118528365163     IErMin= 7 ErrMin= 2.71D-04
 ErrMax= 2.71D-04  0.00D+00 EMaxC= 1.00D-01 BMatC= 4.79D-05 BMatP= 3.77D-04
 IDIUse=3 WtCom= 9.97D-01 WtEn= 2.71D-03
 Coeff-Com: -0.673D-03-0.909D-03-0.817D-02-0.196D-01 0.492D-01 0.296D+00
 Coeff-Com:  0.684D+00
 Coeff-En:   0.000D+00 0.000D+00 0.000D+00 0.000D+00 0.000D+00 0.000D+00
 Coeff-En:   0.100D+01
 Coeff:     -0.671D-03-0.907D-03-0.815D-02-0.196D-01 0.491D-01 0.296D+00
 Coeff:      0.685D+00
 Gap=     0.052 Goal=   None    Shift=    0.000
 RMSDP=1.38D-04 MaxDP=1.50D-02 DE=-3.87D-04 OVMax= 7.17D-03

 Cycle   8  Pass 0  IDiag  1:
 RMSU=  7.23D-05    CP:  8.44D-01  3.70D-02  8.88D-01  1.32D+00  1.59D+00
                    CP:  1.21D+00  7.62D-01
 E= -745.118571352183     Delta-E=       -0.000042987021 Rises=F Damp=F
 DIIS: error= 1.14D-04 at cycle   8 NSaved=   8.
 NSaved= 8 IEnMin= 8 EnMin= -745.118571352183     IErMin= 8 ErrMin= 1.14D-04
 ErrMax= 1.14D-04  0.00D+00 EMaxC= 1.00D-01 BMatC= 1.10D-05 BMatP= 4.79D-05
 IDIUse=3 WtCom= 9.99D-01 WtEn= 1.14D-03
 EnCoef did     3 forward-backward iterations
 Coeff-Com:  0.119D-02-0.743D-03 0.982D-03-0.873D-02-0.140D-02 0.109D+00
 Coeff-Com:  0.366D+00 0.534D+00
 Coeff-En:   0.000D+00 0.000D+00 0.000D+00 0.000D+00 0.000D+00 0.000D+00
 Coeff-En:   0.262D-02 0.997D+00
 Coeff:      0.119D-02-0.742D-03 0.981D-03-0.872D-02-0.139D-02 0.109D+00
 Coeff:      0.366D+00 0.534D+00
 Gap=     0.053 Goal=   None    Shift=    0.000
 RMSDP=4.21D-05 MaxDP=5.11D-03 DE=-4.30D-05 OVMax= 1.52D-03

 Cycle   9  Pass 0  IDiag  1:
 RMSU=  2.95D-05    CP:  8.44D-01  3.71D-02  8.90D-01  1.31D+00  1.59D+00
                    CP:  1.23D+00  8.37D-01  9.36D-01
 E= -745.118583188508     Delta-E=       -0.000011836325 Rises=F Damp=F
 DIIS: error= 4.79D-05 at cycle   9 NSaved=   9.
 NSaved= 9 IEnMin= 9 EnMin= -745.118583188508     IErMin= 9 ErrMin= 4.79D-05
 ErrMax= 4.79D-05  0.00D+00 EMaxC= 1.00D-01 BMatC= 1.45D-06 BMatP= 1.10D-05
 IDIUse=1 WtCom= 1.00D+00 WtEn= 0.00D+00
 Coeff-Com:  0.671D-03-0.373D-03 0.189D-02-0.195D-03-0.133D-02 0.126D-01
 Coeff-Com:  0.690D-01 0.196D+00 0.722D+00
 Coeff:      0.671D-03-0.373D-03 0.189D-02-0.195D-03-0.133D-02 0.126D-01
 Coeff:      0.690D-01 0.196D+00 0.722D+00
 Gap=     0.053 Goal=   None    Shift=    0.000
 RMSDP=2.09D-05 MaxDP=3.19D-03 DE=-1.18D-05 OVMax= 7.86D-04

 Cycle  10  Pass 0  IDiag  1:
 RMSU=  1.33D-05    CP:  8.44D-01  3.71D-02  8.90D-01  1.31D+00  1.59D+00
                    CP:  1.24D+00  8.83D-01  9.86D-01  9.51D-01
 E= -745.118585761449     Delta-E=       -0.000002572941 Rises=F Damp=F
 DIIS: error= 1.84D-05 at cycle  10 NSaved=  10.
 NSaved=10 IEnMin=10 EnMin= -745.118585761449     IErMin=10 ErrMin= 1.84D-05
 ErrMax= 1.84D-05  0.00D+00 EMaxC= 1.00D-01 BMatC= 2.86D-07 BMatP= 1.45D-06
 IDIUse=1 WtCom= 1.00D+00 WtEn= 0.00D+00
 Coeff-Com:  0.178D-03-0.185D-03 0.740D-03 0.995D-03 0.206D-02-0.469D-02
 Coeff-Com: -0.128D-01-0.953D-02 0.313D+00 0.711D+00
 Coeff:      0.178D-03-0.185D-03 0.740D-03 0.995D-03 0.206D-02-0.469D-02
 Coeff:     -0.128D-01-0.953D-02 0.313D+00 0.711D+00
 Gap=     0.053 Goal=   None    Shift=    0.000
 RMSDP=1.15D-05 MaxDP=1.61D-03 DE=-2.57D-06 OVMax= 5.05D-04

 Cycle  11  Pass 0  IDiag  1:
 RMSU=  3.65D-06    CP:  8.44D-01  3.71D-02  8.90D-01  1.31D+00  1.60D+00
                    CP:  1.25D+00  8.81D-01  1.06D+00  1.13D+00  1.06D+00
 E= -745.118586199958     Delta-E=       -0.000000438510 Rises=F Damp=F
 DIIS: error= 1.01D-05 at cycle  11 NSaved=  11.
 NSaved=11 IEnMin=11 EnMin= -745.118586199958     IErMin=11 ErrMin= 1.01D-05
 ErrMax= 1.01D-05  0.00D+00 EMaxC= 1.00D-01 BMatC= 5.63D-08 BMatP= 2.86D-07
 IDIUse=1 WtCom= 1.00D+00 WtEn= 0.00D+00
 Coeff-Com: -0.133D-04-0.180D-04 0.117D-03 0.802D-03 0.228D-02-0.494D-02
 Coeff-Com: -0.212D-01-0.510D-01 0.267D-01 0.387D+00 0.660D+00
 Coeff:     -0.133D-04-0.180D-04 0.117D-03 0.802D-03 0.228D-02-0.494D-02
 Coeff:     -0.212D-01-0.510D-01 0.267D-01 0.387D+00 0.660D+00
 Gap=     0.053 Goal=   None    Shift=    0.000
 RMSDP=5.18D-06 MaxDP=4.74D-04 DE=-4.39D-07 OVMax= 2.31D-04

 Initial convergence to 1.0D-05 achieved.  Increase integral accuracy.
 Cycle  12  Pass 1  IDiag  1:
 E= -745.118612785924     Delta-E=       -0.000026585966 Rises=F Damp=F
 DIIS: error= 1.24D-04 at cycle   1 NSaved=   1.
 NSaved= 1 IEnMin= 1 EnMin= -745.118612785924     IErMin= 1 ErrMin= 1.24D-04
 ErrMax= 1.24D-04  0.00D+00 EMaxC= 1.00D-01 BMatC= 1.96D-06 BMatP= 1.96D-06
 IDIUse=3 WtCom= 9.99D-01 WtEn= 1.24D-03
 Coeff-Com:  0.100D+01
 Coeff-En:   0.100D+01
 Coeff:      0.100D+01
 Gap=     0.053 Goal=   None    Shift=    0.000
 RMSDP=5.18D-06 MaxDP=4.74D-04 DE=-2.66D-05 OVMax= 4.58D-04

 Cycle  13  Pass 1  IDiag  1:
 RMSU=  8.97D-05    CP:  1.00D+00
 E= -745.118614810826     Delta-E=       -0.000002024902 Rises=F Damp=F
 DIIS: error= 3.57D-06 at cycle   2 NSaved=   2.
 NSaved= 2 IEnMin= 2 EnMin= -745.118614810826     IErMin= 2 ErrMin= 3.57D-06
 ErrMax= 3.57D-06  0.00D+00 EMaxC= 1.00D-01 BMatC= 7.35D-09 BMatP= 1.96D-06
 IDIUse=1 WtCom= 1.00D+00 WtEn= 0.00D+00
 Coeff-Com: -0.777D-02 0.101D+01
 Coeff:     -0.777D-02 0.101D+01
 Gap=     0.053 Goal=   None    Shift=    0.000
 RMSDP=5.34D-06 MaxDP=7.96D-04 DE=-2.02D-06 OVMax= 1.37D-04

 Cycle  14  Pass 1  IDiag  1:
 RMSU=  3.85D-06    CP:  1.00D+00  1.02D+00
 E= -745.118614801212     Delta-E=        0.000000009614 Rises=F Damp=F
 DIIS: error= 5.96D-06 at cycle   3 NSaved=   3.
 NSaved= 3 IEnMin= 2 EnMin= -745.118614810826     IErMin= 2 ErrMin= 3.57D-06
 ErrMax= 5.96D-06  0.00D+00 EMaxC= 1.00D-01 BMatC= 1.91D-08 BMatP= 7.35D-09
 IDIUse=1 WtCom= 1.00D+00 WtEn= 0.00D+00
 Coeff-Com: -0.809D-02 0.631D+00 0.377D+00
 Coeff:     -0.809D-02 0.631D+00 0.377D+00
 Gap=     0.053 Goal=   None    Shift=    0.000
 RMSDP=2.45D-06 MaxDP=3.28D-04 DE= 9.61D-09 OVMax= 7.75D-05

 Cycle  15  Pass 1  IDiag  1:
 RMSU=  1.09D-06    CP:  1.00D+00  1.02D+00  5.48D-01
 E= -745.118614821807     Delta-E=       -0.000000020595 Rises=F Damp=F
 DIIS: error= 4.64D-07 at cycle   4 NSaved=   4.
 NSaved= 4 IEnMin= 4 EnMin= -745.118614821807     IErMin= 4 ErrMin= 4.64D-07
 ErrMax= 4.64D-07  0.00D+00 EMaxC= 1.00D-01 BMatC= 2.21D-10 BMatP= 7.35D-09
 IDIUse=1 WtCom= 1.00D+00 WtEn= 0.00D+00
 Coeff-Com: -0.274D-02 0.194D+00 0.146D+00 0.663D+00
 Coeff:     -0.274D-02 0.194D+00 0.146D+00 0.663D+00
 Gap=     0.053 Goal=   None    Shift=    0.000
 RMSDP=4.30D-07 MaxDP=4.56D-05 DE=-2.06D-08 OVMax= 2.22D-05

 Cycle  16  Pass 1  IDiag  1:
 RMSU=  3.92D-07    CP:  1.00D+00  1.02D+00  5.80D-01  1.10D+00
 E= -745.118614822076     Delta-E=       -0.000000000269 Rises=F Damp=F
 DIIS: error= 3.52D-07 at cycle   5 NSaved=   5.
 NSaved= 5 IEnMin= 5 EnMin= -745.118614822076     IErMin= 5 ErrMin= 3.52D-07
 ErrMax= 3.52D-07  0.00D+00 EMaxC= 1.00D-01 BMatC= 7.06D-11 BMatP= 2.21D-10
 IDIUse=1 WtCom= 1.00D+00 WtEn= 0.00D+00
 Coeff-Com: -0.182D-03 0.318D-02 0.180D-01 0.376D+00 0.603D+00
 Coeff:     -0.182D-03 0.318D-02 0.180D-01 0.376D+00 0.603D+00
 Gap=     0.053 Goal=   None    Shift=    0.000
 RMSDP=2.24D-07 MaxDP=1.65D-05 DE=-2.69D-10 OVMax= 1.20D-05

 Cycle  17  Pass 1  IDiag  1:
 RMSU=  1.32D-07    CP:  1.00D+00  1.02D+00  6.00D-01  1.24D+00  9.65D-01
 E= -745.118614822190     Delta-E=       -0.000000000113 Rises=F Damp=F
 DIIS: error= 6.51D-08 at cycle   6 NSaved=   6.
 NSaved= 6 IEnMin= 6 EnMin= -745.118614822190     IErMin= 6 ErrMin= 6.51D-08
 ErrMax= 6.51D-08  0.00D+00 EMaxC= 1.00D-01 BMatC= 4.88D-12 BMatP= 7.06D-11
 IDIUse=1 WtCom= 1.00D+00 WtEn= 0.00D+00
 Coeff-Com:  0.260D-03-0.230D-01-0.929D-02 0.966D-01 0.260D+00 0.675D+00
 Coeff:      0.260D-03-0.230D-01-0.929D-02 0.966D-01 0.260D+00 0.675D+00
 Gap=     0.053 Goal=   None    Shift=    0.000
 RMSDP=1.19D-07 MaxDP=6.24D-06 DE=-1.13D-10 OVMax= 7.71D-06

 Cycle  18  Pass 1  IDiag  1:
 RMSU=  5.62D-08    CP:  1.00D+00  1.02D+00  6.13D-01  1.29D+00  1.10D+00
                    CP:  1.38D+00
 E= -745.118614822204     Delta-E=       -0.000000000014 Rises=F Damp=F
 DIIS: error= 2.58D-08 at cycle   7 NSaved=   7.
 NSaved= 7 IEnMin= 7 EnMin= -745.118614822204     IErMin= 7 ErrMin= 2.58D-08
 ErrMax= 2.58D-08  0.00D+00 EMaxC= 1.00D-01 BMatC= 1.04D-12 BMatP= 4.88D-12
 IDIUse=1 WtCom= 1.00D+00 WtEn= 0.00D+00
 Coeff-Com:  0.140D-03-0.108D-01-0.645D-02-0.863D-02 0.192D-01 0.318D+00
 Coeff-Com:  0.688D+00
 Coeff:      0.140D-03-0.108D-01-0.645D-02-0.863D-02 0.192D-01 0.318D+00
 Coeff:      0.688D+00
 Gap=     0.053 Goal=   None    Shift=    0.000
 RMSDP=8.26D-08 MaxDP=1.05D-05 DE=-1.41D-11 OVMax= 4.13D-06

 Cycle  19  Pass 1  IDiag  1:
 RMSU=  1.32D-08    CP:  1.00D+00  1.02D+00  6.25D-01  1.32D+00  1.11D+00
                    CP:  1.75D+00  1.38D+00
 E= -745.118614822242     Delta-E=       -0.000000000038 Rises=F Damp=F
 DIIS: error= 1.13D-08 at cycle   8 NSaved=   8.
 NSaved= 8 IEnMin= 8 EnMin= -745.118614822242     IErMin= 8 ErrMin= 1.13D-08
 ErrMax= 1.13D-08  0.00D+00 EMaxC= 1.00D-01 BMatC= 1.84D-13 BMatP= 1.04D-12
 IDIUse=1 WtCom= 1.00D+00 WtEn= 0.00D+00
 Coeff-Com: -0.108D-04 0.189D-02-0.345D-03-0.337D-01-0.773D-01-0.303D-01
 Coeff-Com:  0.303D+00 0.837D+00
 Coeff:     -0.108D-04 0.189D-02-0.345D-03-0.337D-01-0.773D-01-0.303D-01
 Coeff:      0.303D+00 0.837D+00
 Gap=     0.053 Goal=   None    Shift=    0.000
 RMSDP=5.69D-08 MaxDP=5.27D-06 DE=-3.82D-11 OVMax= 3.23D-06

 Cycle  20  Pass 1  IDiag  1:
 RMSU=  7.77D-09    CP:  1.00D+00  1.02D+00  6.32D-01  1.34D+00  1.14D+00
                    CP:  2.02D+00  1.71D+00  1.63D+00
 E= -745.118614822199     Delta-E=        0.000000000043 Rises=F Damp=F
 DIIS: error= 4.97D-09 at cycle   9 NSaved=   9.
 NSaved= 9 IEnMin= 8 EnMin= -745.118614822242     IErMin= 9 ErrMin= 4.97D-09
 ErrMax= 4.97D-09  0.00D+00 EMaxC= 1.00D-01 BMatC= 2.74D-14 BMatP= 1.84D-13
 IDIUse=1 WtCom= 1.00D+00 WtEn= 0.00D+00
 Coeff-Com: -0.217D-04 0.208D-02 0.566D-03-0.115D-01-0.328D-01-0.414D-01
 Coeff-Com:  0.309D-01 0.348D+00 0.704D+00
 Coeff:     -0.217D-04 0.208D-02 0.566D-03-0.115D-01-0.328D-01-0.414D-01
 Coeff:      0.309D-01 0.348D+00 0.704D+00
 Gap=     0.053 Goal=   None    Shift=    0.000
 RMSDP=1.61D-08 MaxDP=2.12D-06 DE= 4.27D-11 OVMax= 8.33D-07

 Cycle  21  Pass 1  IDiag  1:
 RMSU=  3.04D-09    CP:  1.00D+00  1.02D+00  6.33D-01  1.34D+00  1.14D+00
                    CP:  2.09D+00  1.85D+00  1.94D+00  1.22D+00
 E= -745.118614822204     Delta-E=       -0.000000000005 Rises=F Damp=F
 DIIS: error= 3.27D-09 at cycle  10 NSaved=  10.
 NSaved=10 IEnMin= 8 EnMin= -745.118614822242     IErMin=10 ErrMin= 3.27D-09
 ErrMax= 3.27D-09  0.00D+00 EMaxC= 1.00D-01 BMatC= 9.31D-15 BMatP= 2.74D-14
 IDIUse=1 WtCom= 1.00D+00 WtEn= 0.00D+00
 Coeff-Com: -0.111D-04 0.932D-03 0.379D-03-0.169D-02-0.759D-02-0.187D-01
 Coeff-Com: -0.360D-01 0.612D-01 0.417D+00 0.584D+00
 Coeff:     -0.111D-04 0.932D-03 0.379D-03-0.169D-02-0.759D-02-0.187D-01
 Coeff:     -0.360D-01 0.612D-01 0.417D+00 0.584D+00
 Gap=     0.053 Goal=   None    Shift=    0.000
 RMSDP=6.92D-09 MaxDP=9.65D-07 DE=-5.00D-12 OVMax= 3.11D-07

 SCF Done:  E(RPBE1PBE) =  -745.118614822     A.U. after   21 cycles
            NFock= 21  Conv=0.69D-08     -V/T= 2.0096
 KE= 7.380369236028D+02 PE=-4.978408397114D+03 EE= 1.877216597603D+03
 Leave Link  502 at Fri Jan 24 16:53:45 2025, MaxMem=  3221225472 cpu:            1871.6 elap:              78.0
 (Enter /software/gaussian/G16-C.01/avx2/g16/l601.exe)
 Copying SCF densities to generalized density rwf, IOpCl= 0 IROHF=0.

 **********************************************************************

            Population analysis using the SCF Density.

 **********************************************************************

 Orbital symmetries:
       Occupied  (A) (A) (A) (A) (A) (A) (A) (A) (A) (A) (A) (A)
                 (A) (A) (A) (A) (A) (A) (A) (A) (A) (A) (A) (A)
                 (A) (A) (A) (A) (A) (A) (A) (A) (A) (A) (A) (A)
                 (A) (A) (A) (A) (A) (A) (A) (A) (A) (A) (A) (A)
                 (A) (A) (A) (A) (A) (A) (A) (A) (A) (A) (A) (A)
                 (A) (A) (A) (A) (A) (A) (A) (A) (A) (A) (A) (A)
                 (A) (A)
       Virtual   (A) (A) (A) (A) (A) (A) (A) (A) (A) (A) (A) (A)
                 (A) (A) (A) (A) (A) (A) (A) (A) (A) (A) (A) (A)
                 (A) (A) (A) (A) (A) (A) (A) (A) (A) (A) (A) (A)
                 (A) (A) (A) (A) (A) (A) (A) (A) (A) (A) (A) (A)
                 (A) (A) (A) (A) (A) (A) (A) (A) (A) (A) (A) (A)
                 (A) (A) (A) (A) (A) (A) (A) (A) (A) (A) (A) (A)
                 (A) (A) (A) (A) (A) (A) (A) (A) (A) (A) (A) (A)
                 (A) (A) (A) (A) (A) (A) (A) (A) (A) (A) (A) (A)
                 (A) (A) (A) (A) (A) (A) (A) (A) (A) (A) (A) (A)
                 (A) (A) (A) (A) (A) (A) (A) (A) (A) (A) (A) (A)
                 (A) (A) (A) (A) (A) (A) (A) (A) (A) (A) (A) (A)
                 (A) (A) (A) (A) (A) (A) (A) (A) (A) (A) (A) (A)
                 (A) (A) (A) (A) (A) (A) (A) (A) (A) (A) (A) (A)
                 (A) (A) (A) (A) (A) (A) (A) (A) (A) (A) (A) (A)
                 (A) (A) (A) (A) (A) (A) (A) (A) (A) (A) (A) (A)
                 (A) (A) (A) (A) (A) (A) (A) (A) (A) (A) (A) (A)
                 (A) (A) (A) (A) (A) (A) (A) (A) (A) (A) (A) (A)
                 (A) (A) (A) (A) (A) (A) (A) (A) (A) (A) (A) (A)
                 (A) (A) (A) (A) (A) (A) (A) (A) (A) (A) (A) (A)
                 (A) (A) (A) (A) (A) (A) (A) (A) (A) (A) (A) (A)
                 (A) (A) (A) (A) (A) (A) (A) (A) (A) (A) (A) (A)
                 (A) (A) (A) (A) (A) (A) (A) (A) (A) (A) (A) (A)
                 (A) (A) (A) (A) (A) (A) (A) (A) (A) (A) (A) (A)
                 (A) (A) (A) (A) (A) (A) (A) (A) (A) (A) (A) (A)
                 (A) (A) (A) (A) (A) (A) (A) (A) (A) (A) (A) (A)
                 (A) (A) (A) (A) (A) (A) (A) (A) (A) (A) (A) (A)
                 (A) (A) (A) (A) (A) (A) (A) (A) (A) (A) (A) (A)
                 (A) (A) (A) (A) (A) (A) (A) (A) (A) (A) (A) (A)
                 (A) (A) (A) (A) (A) (A) (A) (A) (A) (A) (A) (A)
                 (A) (A) (A) (A) (A) (A) (A) (A) (A)
 The electronic state is 1-A.
 Alpha  occ. eigenvalues --  -14.24813 -10.17742 -10.13521 -10.13391 -10.13299
 Alpha  occ. eigenvalues --  -10.13006 -10.12420 -10.11925 -10.11134 -10.10600
 Alpha  occ. eigenvalues --  -10.09440 -10.08144 -10.06756 -10.06718 -10.06358
 Alpha  occ. eigenvalues --  -10.06298 -10.03945 -10.03571  -6.53692  -0.84101
 Alpha  occ. eigenvalues --   -0.75285  -0.70849  -0.67980  -0.67546  -0.60719
 Alpha  occ. eigenvalues --   -0.59975  -0.59194  -0.58539  -0.57156  -0.56503
 Alpha  occ. eigenvalues --   -0.50455  -0.49178  -0.48009  -0.47886  -0.43984
 Alpha  occ. eigenvalues --   -0.40832  -0.39660  -0.37889  -0.37685  -0.36693
 Alpha  occ. eigenvalues --   -0.35343  -0.34045  -0.33256  -0.32978  -0.32369
 Alpha  occ. eigenvalues --   -0.32039  -0.30850  -0.29859  -0.27914  -0.27657
 Alpha  occ. eigenvalues --   -0.27169  -0.26739  -0.26242  -0.25827  -0.25753
 Alpha  occ. eigenvalues --   -0.25256  -0.23920  -0.23601  -0.23058  -0.22961
 Alpha  occ. eigenvalues --   -0.22396  -0.22388  -0.21923  -0.21121  -0.20521
 Alpha  occ. eigenvalues --   -0.19200  -0.16872  -0.16125  -0.15787  -0.14820
 Alpha  occ. eigenvalues --   -0.14477  -0.09146  -0.08739   0.09608
 Alpha virt. eigenvalues --    0.14915   0.16858   0.18000   0.18489   0.19586
 Alpha virt. eigenvalues --    0.20440   0.20834   0.21752   0.22015   0.22527
 Alpha virt. eigenvalues --    0.23187   0.23806   0.24088   0.24260   0.24611
 Alpha virt. eigenvalues --    0.24680   0.25550   0.26337   0.26594   0.27688
 Alpha virt. eigenvalues --    0.28288   0.28554   0.29453   0.29701   0.30466
 Alpha virt. eigenvalues --    0.30499   0.31168   0.31219   0.31703   0.32120
 Alpha virt. eigenvalues --    0.32863   0.33125   0.33466   0.34032   0.34423
 Alpha virt. eigenvalues --    0.35073   0.35568   0.36263   0.37549   0.37695
 Alpha virt. eigenvalues --    0.38062   0.38739   0.40059   0.40296   0.40653
 Alpha virt. eigenvalues --    0.41305   0.42599   0.43060   0.45248   0.46425
 Alpha virt. eigenvalues --    0.48319   0.49192   0.49780   0.51154   0.52794
 Alpha virt. eigenvalues --    0.54140   0.55254   0.57237   0.57399   0.57907
 Alpha virt. eigenvalues --    0.58653   0.59935   0.60437   0.60954   0.62043
 Alpha virt. eigenvalues --    0.62537   0.63914   0.65266   0.65802   0.65948
 Alpha virt. eigenvalues --    0.67713   0.68408   0.69076   0.70164   0.71652
 Alpha virt. eigenvalues --    0.72295   0.72954   0.73466   0.73945   0.74147
 Alpha virt. eigenvalues --    0.75226   0.75528   0.75878   0.76136   0.76357
 Alpha virt. eigenvalues --    0.76607   0.76819   0.77315   0.77828   0.78227
 Alpha virt. eigenvalues --    0.78451   0.78632   0.78933   0.79595   0.79761
 Alpha virt. eigenvalues --    0.80359   0.80471   0.80718   0.81003   0.81365
 Alpha virt. eigenvalues --    0.81684   0.82213   0.82666   0.82916   0.83563
 Alpha virt. eigenvalues --    0.83751   0.84275   0.84629   0.84734   0.85002
 Alpha virt. eigenvalues --    0.85406   0.85610   0.86197   0.86502   0.86856
 Alpha virt. eigenvalues --    0.87392   0.87755   0.88373   0.88666   0.89154
 Alpha virt. eigenvalues --    0.89760   0.90129   0.90447   0.90970   0.91675
 Alpha virt. eigenvalues --    0.92774   0.93207   0.94308   0.94533   0.95698
 Alpha virt. eigenvalues --    0.96127   0.98014   0.99687   1.00867   1.02866
 Alpha virt. eigenvalues --    1.04258   1.05231   1.06092   1.06801   1.10419
 Alpha virt. eigenvalues --    1.12227   1.12749   1.13486   1.14643   1.17749
 Alpha virt. eigenvalues --    1.20438   1.20801   1.21741   1.22602   1.24055
 Alpha virt. eigenvalues --    1.25371   1.25849   1.27283   1.27915   1.29713
 Alpha virt. eigenvalues --    1.32749   1.33999   1.35963   1.37413   1.38755
 Alpha virt. eigenvalues --    1.40988   1.41677   1.42118   1.42454   1.44149
 Alpha virt. eigenvalues --    1.45980   1.46728   1.47481   1.48218   1.49217
 Alpha virt. eigenvalues --    1.50746   1.52301   1.52393   1.53408   1.55488
 Alpha virt. eigenvalues --    1.56453   1.56990   1.59258   1.60832   1.62848
 Alpha virt. eigenvalues --    1.64584   1.65345   1.65978   1.67751   1.68382
 Alpha virt. eigenvalues --    1.70266   1.71966   1.73231   1.75624   1.76541
 Alpha virt. eigenvalues --    1.78020   1.78499   1.79571   1.80157   1.82208
 Alpha virt. eigenvalues --    1.82714   1.84453   1.85063   1.86884   1.87346
 Alpha virt. eigenvalues --    1.87709   1.88573   1.89167   1.89555   1.89879
 Alpha virt. eigenvalues --    1.90629   1.91611   1.92161   1.92454   1.93081
 Alpha virt. eigenvalues --    1.93412   1.93562   1.94187   1.94511   1.94845
 Alpha virt. eigenvalues --    1.95200   1.95717   1.96286   1.96956   1.97081
 Alpha virt. eigenvalues --    1.97374   1.98303   1.98870   1.99207   1.99513
 Alpha virt. eigenvalues --    2.00335   2.00778   2.01144   2.01445   2.02593
 Alpha virt. eigenvalues --    2.02779   2.03200   2.03842   2.04744   2.05206
 Alpha virt. eigenvalues --    2.05861   2.06010   2.06901   2.07930   2.09469
 Alpha virt. eigenvalues --    2.09665   2.09980   2.10269   2.11073   2.11997
 Alpha virt. eigenvalues --    2.12719   2.13373   2.13824   2.14567   2.15874
 Alpha virt. eigenvalues --    2.16050   2.17353   2.17720   2.18594   2.19416
 Alpha virt. eigenvalues --    2.20160   2.20557   2.20970   2.21871   2.22931
 Alpha virt. eigenvalues --    2.24948   2.25325   2.26259   2.28517   2.29148
 Alpha virt. eigenvalues --    2.30069   2.30993   2.32440   2.32999   2.34226
 Alpha virt. eigenvalues --    2.34938   2.36467   2.38504   2.40101   2.41925
 Alpha virt. eigenvalues --    2.42484   2.43068   2.43633   2.45477   2.46265
 Alpha virt. eigenvalues --    2.47610   2.48706   2.49009   2.49706   2.50624
 Alpha virt. eigenvalues --    2.51965   2.52811   2.53891   2.54962   2.55872
 Alpha virt. eigenvalues --    2.56574   2.57710   2.58068   2.59911   2.61619
 Alpha virt. eigenvalues --    2.62518   2.63610   2.64801   2.65804   2.67228
 Alpha virt. eigenvalues --    2.67689   2.69243   2.70370   2.71200   2.71950
 Alpha virt. eigenvalues --    2.73782   2.74997   2.75313   2.76398   2.77130
 Alpha virt. eigenvalues --    2.81432   2.81862   2.82680   2.84155   2.84725
 Alpha virt. eigenvalues --    2.86558   2.88050   2.91430   2.92438   2.94062
 Alpha virt. eigenvalues --    2.95965   2.96410   2.97826   2.98722   3.01471
 Alpha virt. eigenvalues --    3.04320   3.04502   3.05097   3.06370   3.07652
 Alpha virt. eigenvalues --    3.08699   3.09220   3.10938   3.12024   3.12476
 Alpha virt. eigenvalues --    3.13142   3.13425   3.14035   3.15433   3.16117
 Alpha virt. eigenvalues --    3.16401   3.17538   3.18075   3.19041   3.20465
 Alpha virt. eigenvalues --    3.21696   3.22111   3.23015   3.24114   3.26790
 Alpha virt. eigenvalues --    3.28805   3.31600   3.33158   3.41331   3.51796
 Alpha virt. eigenvalues --    3.78285   5.54409
          Condensed to atoms (all electrons):
 Mulliken charges:
               1
     1  C   -0.019724
     2  C    0.988707
     3  C    0.169337
     4  B   -0.249577
     5  C   -0.161875
     6  C    0.119226
     7  C   -0.087012
     8  C    0.112393
     9  C   -0.149033
    10  C    0.038054
    11  C    0.065321
    12  N   -0.423499
    13  C    0.072920
    14  C   -0.019489
    15  C   -0.059639
    16  C   -0.049216
    17  C   -0.048630
    18  C   -0.036970
    19  C    0.119253
    20  H    0.031183
    21  H    0.033906
    22  H   -0.002406
    23  H    0.004961
    24  H    0.015716
    25  H   -0.092956
    26  H   -0.049794
    27  H   -0.030417
    28  H   -0.062759
    29  H   -0.011810
    30  H    0.007213
    31  H   -0.061401
    32  H   -0.019867
    33  H   -0.034549
    34  H   -0.013958
    35  H   -0.057546
    36  H   -0.027800
    37  H   -0.061687
    38  H    0.031146
    39  H   -0.016391
    40  H    0.008352
    41  H    0.041958
    42  H    0.006665
    43  H    0.011117
    44  H    0.003811
    45  H    0.025084
    46  H    0.006282
    47  H    0.011340
    48  H    0.003377
    49  H    0.030423
    50  H    0.009176
    51  H   -0.019042
    52  H   -1.099874
 Sum of Mulliken charges =  -1.00000
 Mulliken charges with hydrogens summed into heavy atoms:
               1
     1  C    0.042959
     2  C   -0.111167
     3  C    0.097058
     4  B   -0.249577
     5  C   -0.211669
     6  C    0.026050
     7  C   -0.091609
     8  C    0.031125
     9  C   -0.183582
    10  C   -0.033450
    11  C   -0.024167
    12  N   -0.423499
    13  C    0.087675
    14  C    0.030822
    15  C   -0.041857
    16  C   -0.020321
    17  C   -0.031008
    18  C   -0.003170
    19  C    0.109386
 Electronic spatial extent (au):  <R**2>=           5984.2782
 Charge=             -1.0000 electrons
 Dipole moment (field-independent basis, Debye):
    X=             -7.1604    Y=              0.5073    Z=              0.7066  Tot=              7.2131
 Quadrupole moment (field-independent basis, Debye-Ang):
   XX=           -170.3072   YY=           -141.9421   ZZ=           -136.5565
   XY=              2.9890   XZ=             -0.0666   YZ=              0.3286
 Traceless Quadrupole moment (field-independent basis, Debye-Ang):
   XX=            -20.7053   YY=              7.6598   ZZ=             13.0454
   XY=              2.9890   XZ=             -0.0666   YZ=              0.3286
[...]
                 (A) (A) (A) (A) (A) (A) (A) (A) (A) (A) (A) (A)
                 (A) (A) (A) (A) (A) (A) (A) (A) (A) (A) (A) (A)
                 (A) (A) (A) (A) (A) (A) (A) (A) (A) (A) (A) (A)
                 (A) (A) (A) (A) (A) (A) (A) (A) (A) (A) (A) (A)
                 (A) (A) (A) (A) (A) (A) (A) (A) (A) (A) (A) (A)
                 (A) (A) (A) (A) (A) (A) (A) (A) (A) (A) (A) (A)
                 (A) (A) (A) (A) (A) (A) (A) (A) (A) (A) (A) (A)
                 (A) (A) (A) (A) (A) (A) (A) (A) (A) (A) (A) (A)
                 (A) (A) (A) (A) (A) (A) (A) (A) (A) (A) (A) (A)
                 (A) (A) (A) (A) (A) (A) (A) (A) (A) (A) (A) (A)
                 (A) (A) (A) (A) (A) (A) (A) (A) (A) (A) (A) (A)
                 (A) (A) (A) (A) (A)
 The electronic state is 1-A.
 Alpha  occ. eigenvalues --  -14.22754 -10.11860 -10.11544 -10.11383 -10.11337
 Alpha  occ. eigenvalues --  -10.10440 -10.09812 -10.09488 -10.07886 -10.07415
 Alpha  occ. eigenvalues --  -10.06599 -10.06491 -10.06302 -10.06222 -10.06004
 Alpha  occ. eigenvalues --  -10.05955 -10.03370 -10.02803  -6.52886  -0.80573
 Alpha  occ. eigenvalues --   -0.72496  -0.69997  -0.68219  -0.64803  -0.62556
 Alpha  occ. eigenvalues --   -0.60563  -0.60035  -0.59041  -0.55509  -0.51009
 Alpha  occ. eigenvalues --   -0.50776  -0.49818  -0.48712  -0.44808  -0.43070
 Alpha  occ. eigenvalues --   -0.41038  -0.39119  -0.38143  -0.37090  -0.36372
 Alpha  occ. eigenvalues --   -0.35098  -0.34325  -0.33735  -0.31973  -0.31464
 Alpha  occ. eigenvalues --   -0.30710  -0.30113  -0.28977  -0.28454  -0.27525
 Alpha  occ. eigenvalues --   -0.26829  -0.26688  -0.26474  -0.26243  -0.24937
 Alpha  occ. eigenvalues --   -0.23926  -0.23323  -0.22942  -0.22506  -0.22304
 Alpha  occ. eigenvalues --   -0.22209  -0.21635  -0.20871  -0.20136  -0.19380
 Alpha  occ. eigenvalues --   -0.19112  -0.17312  -0.16789  -0.16144  -0.15217
 Alpha  occ. eigenvalues --   -0.10981  -0.09303  -0.08356  -0.06989
 Alpha virt. eigenvalues --    0.13024   0.15490   0.15901   0.16086   0.17745
 Alpha virt. eigenvalues --    0.17934   0.18583   0.18963   0.19405   0.19856
 Alpha virt. eigenvalues --    0.20403   0.20746   0.21101   0.21623   0.21916
 Alpha virt. eigenvalues --    0.22203   0.22587   0.22955   0.23928   0.24168
 Alpha virt. eigenvalues --    0.24844   0.25391   0.26660   0.26832   0.27083
 Alpha virt. eigenvalues --    0.27925   0.28193   0.28509   0.28815   0.28922
 Alpha virt. eigenvalues --    0.29222   0.29573   0.30316   0.30787   0.30934
 Alpha virt. eigenvalues --    0.31268   0.31286   0.32168   0.32673   0.33013
 Alpha virt. eigenvalues --    0.33705   0.33939   0.34144   0.34890   0.35350
 Alpha virt. eigenvalues --    0.35628   0.36136   0.36703   0.36955   0.37119
 Alpha virt. eigenvalues --    0.37791   0.38190   0.39037   0.39572   0.39713
 Alpha virt. eigenvalues --    0.40202   0.40446   0.41337   0.41868   0.42611
 Alpha virt. eigenvalues --    0.42706   0.43856   0.44450   0.44986   0.45192
 Alpha virt. eigenvalues --    0.45707   0.46104   0.46853   0.47437   0.47953
 Alpha virt. eigenvalues --    0.48988   0.49575   0.49701   0.49893   0.50258
 Alpha virt. eigenvalues --    0.51158   0.51486   0.51994   0.52319   0.52978
 Alpha virt. eigenvalues --    0.53068   0.53294   0.53731   0.53909   0.54182
 Alpha virt. eigenvalues --    0.54481   0.54785   0.54980   0.55207   0.55398
 Alpha virt. eigenvalues --    0.55783   0.56084   0.56323   0.56757   0.57155
 Alpha virt. eigenvalues --    0.57440   0.57736   0.58146   0.58346   0.58470
 Alpha virt. eigenvalues --    0.58707   0.59113   0.59553   0.59777   0.60109
 Alpha virt. eigenvalues --    0.60738   0.61086   0.61396   0.61906   0.62091
 Alpha virt. eigenvalues --    0.62206   0.62418   0.62777   0.63129   0.63231
 Alpha virt. eigenvalues --    0.63826   0.64602   0.64814   0.65288   0.65317
 Alpha virt. eigenvalues --    0.65659   0.66729   0.67156   0.67820   0.67869
 Alpha virt. eigenvalues --    0.68772   0.69159   0.69904   0.70309   0.71028
 Alpha virt. eigenvalues --    0.71402   0.71561   0.71678   0.72484   0.73061
 Alpha virt. eigenvalues --    0.74008   0.75093   0.75987   0.76184   0.77424
 Alpha virt. eigenvalues --    0.78207   0.78936   0.80160   0.80913   0.81503
 Alpha virt. eigenvalues --    0.82338   0.82759   0.83107   0.84361   0.84532
 Alpha virt. eigenvalues --    0.85406   0.87187   0.87561   0.88119   0.88681
 Alpha virt. eigenvalues --    0.89290   0.91060   0.91619   0.92309   0.93031
 Alpha virt. eigenvalues --    0.93949   0.94641   0.95246   0.95658   0.96321
 Alpha virt. eigenvalues --    0.97046   0.97216   0.99075   0.99602   1.00006
 Alpha virt. eigenvalues --    1.00933   1.01133   1.01938   1.02764   1.03666
 Alpha virt. eigenvalues --    1.04384   1.05448   1.06616   1.06811   1.07796
 Alpha virt. eigenvalues --    1.08371   1.08724   1.09232   1.09751   1.10490
 Alpha virt. eigenvalues --    1.11143   1.11987   1.13437   1.14213   1.15087
 Alpha virt. eigenvalues --    1.15405   1.16145   1.16429   1.17144   1.18185
 Alpha virt. eigenvalues --    1.18890   1.18989   1.19913   1.20564   1.22474
 Alpha virt. eigenvalues --    1.22667   1.23341   1.23528   1.24237   1.25103
 Alpha virt. eigenvalues --    1.25789   1.26325   1.27167   1.27712   1.28596
 Alpha virt. eigenvalues --    1.29018   1.29776   1.30475   1.30883   1.31948
 Alpha virt. eigenvalues --    1.32203   1.32834   1.33428   1.34342   1.34839
 Alpha virt. eigenvalues --    1.36154   1.37033   1.38403   1.38574   1.38830
 Alpha virt. eigenvalues --    1.39505   1.40385   1.40667   1.41262   1.42041
 Alpha virt. eigenvalues --    1.42506   1.43231   1.43884   1.44417   1.44713
 Alpha virt. eigenvalues --    1.45899   1.46746   1.47325   1.48646   1.49568
 Alpha virt. eigenvalues --    1.50289   1.50606   1.51815   1.53036   1.53627
 Alpha virt. eigenvalues --    1.54209   1.54799   1.56227   1.58691   1.58892
 Alpha virt. eigenvalues --    1.60296   1.61474   1.63904   1.64487   1.65468
 Alpha virt. eigenvalues --    1.65745   1.67297   1.67502   1.68698   1.69457
 Alpha virt. eigenvalues --    1.70234   1.70484   1.71229   1.72113   1.72790
 Alpha virt. eigenvalues --    1.73494   1.74100   1.74535   1.74967   1.75443
 Alpha virt. eigenvalues --    1.76092   1.76535   1.77108   1.77799   1.78245
 Alpha virt. eigenvalues --    1.78832   1.79524   1.79719   1.80377   1.80988
 Alpha virt. eigenvalues --    1.81715   1.82193   1.82824   1.83322   1.84325
 Alpha virt. eigenvalues --    1.85033   1.85504   1.86632   1.87048   1.87596
 Alpha virt. eigenvalues --    1.88704   1.88830   1.89766   1.90817   1.91162
 Alpha virt. eigenvalues --    1.92610   1.93621   1.94575   1.95768   1.96037
 Alpha virt. eigenvalues --    1.96552   1.97596   1.97968   1.98516   1.98896
 Alpha virt. eigenvalues --    1.99944   2.00698   2.01199   2.02036   2.02926
 Alpha virt. eigenvalues --    2.03584   2.04212   2.05154   2.05462   2.05861
 Alpha virt. eigenvalues --    2.07518   2.08566   2.09297   2.09922   2.10750
 Alpha virt. eigenvalues --    2.11194   2.12016   2.12354   2.13921   2.14976
 Alpha virt. eigenvalues --    2.15058   2.16039   2.16886   2.17167   2.18516
 Alpha virt. eigenvalues --    2.19395   2.20184   2.20801   2.22192   2.22791
 Alpha virt. eigenvalues --    2.23338   2.24193   2.24596   2.25355   2.25914
 Alpha virt. eigenvalues --    2.26578   2.26900   2.27808   2.28969   2.29087
 Alpha virt. eigenvalues --    2.29886   2.30692   2.32064   2.34018   2.34513
 Alpha virt. eigenvalues --    2.35157   2.35867   2.36699   2.38929   2.39831
 Alpha virt. eigenvalues --    2.40522   2.40738   2.42249   2.42956   2.43712
 Alpha virt. eigenvalues --    2.45714   2.46729   2.46971   2.48066   2.49272
 Alpha virt. eigenvalues --    2.50140   2.50423   2.51113   2.51428   2.52438
 Alpha virt. eigenvalues --    2.53254   2.54016   2.54455   2.55628   2.55884
 Alpha virt. eigenvalues --    2.56259   2.57641   2.58070   2.59094   2.60428
 Alpha virt. eigenvalues --    2.61303   2.61704   2.62445   2.62880   2.63111
 Alpha virt. eigenvalues --    2.63757   2.64133   2.64783   2.65806   2.65981
 Alpha virt. eigenvalues --    2.67552   2.67684   2.68751   2.68829   2.69177
 Alpha virt. eigenvalues --    2.69644   2.70287   2.70640   2.71544   2.71638
 Alpha virt. eigenvalues --    2.73210   2.73289   2.73624   2.73993   2.74807
 Alpha virt. eigenvalues --    2.75317   2.75477   2.76375   2.76603   2.77076
 Alpha virt. eigenvalues --    2.77609   2.78402   2.79082   2.80132   2.80262
 Alpha virt. eigenvalues --    2.80836   2.81101   2.81588   2.82087   2.82501
 Alpha virt. eigenvalues --    2.83099   2.83919   2.84368   2.84784   2.85762
 Alpha virt. eigenvalues --    2.86493   2.86907   2.87629   2.88033   2.88687
 Alpha virt. eigenvalues --    2.88911   2.89225   2.89733   2.89941   2.90412
 Alpha virt. eigenvalues --    2.91727   2.92080   2.92879   2.93394   2.93822
 Alpha virt. eigenvalues --    2.95099   2.95319   2.95794   2.95958   2.97371
 Alpha virt. eigenvalues --    2.98348   2.99452   3.00090   3.01341   3.01423
 Alpha virt. eigenvalues --    3.02551   3.03824   3.04276   3.04865   3.05852
 Alpha virt. eigenvalues --    3.06256   3.06677   3.07202   3.08280   3.09031
 Alpha virt. eigenvalues --    3.09695   3.10073   3.10913   3.11381   3.12831
 Alpha virt. eigenvalues --    3.13922   3.14249   3.15081   3.16094   3.17692
 Alpha virt. eigenvalues --    3.18013   3.19184   3.19326   3.19873   3.22160
 Alpha virt. eigenvalues --    3.22923   3.24292   3.25252   3.25647   3.27300
 Alpha virt. eigenvalues --    3.27883   3.28544   3.29914   3.30844   3.31336
 Alpha virt. eigenvalues --    3.31578   3.32343   3.33457   3.33550   3.34233
 Alpha virt. eigenvalues --    3.34804   3.35901   3.36142   3.36563   3.37497
 Alpha virt. eigenvalues --    3.38175   3.38653   3.39797   3.40428   3.40602
 Alpha virt. eigenvalues --    3.41410   3.42324   3.42501   3.43032   3.43648
 Alpha virt. eigenvalues --    3.44173   3.44834   3.45237   3.45612   3.46108
 Alpha virt. eigenvalues --    3.46969   3.47561   3.47806   3.48280   3.48988
 Alpha virt. eigenvalues --    3.49334   3.50065   3.50554   3.50741   3.51692
 Alpha virt. eigenvalues --    3.51729   3.53864   3.53911   3.54748   3.54949
 Alpha virt. eigenvalues --    3.56291   3.57315   3.57453   3.58172   3.58786
 Alpha virt. eigenvalues --    3.59708   3.60060   3.60855   3.61186   3.61531
 Alpha virt. eigenvalues --    3.62513   3.63579   3.63878   3.64269   3.64796
 Alpha virt. eigenvalues --    3.65240   3.66856   3.67822   3.68571   3.69408
 Alpha virt. eigenvalues --    3.69767   3.70243   3.71523   3.71964   3.72740
 Alpha virt. eigenvalues --    3.74059   3.75455   3.76136   3.76809   3.77916
 Alpha virt. eigenvalues --    3.78524   3.79042   3.79443   3.79795   3.80785
 Alpha virt. eigenvalues --    3.81834   3.82504   3.84683   3.84814   3.86276
 Alpha virt. eigenvalues --    3.87288   3.87910   3.89454   3.89922   3.90673
 Alpha virt. eigenvalues --    3.91679   3.92128   3.93267   3.94357   3.94878
 Alpha virt. eigenvalues --    3.95495   3.96929   3.97711   3.98239   3.99386
 Alpha virt. eigenvalues --    4.00943   4.01404   4.02611   4.03053   4.04277
 Alpha virt. eigenvalues --    4.05881   4.06408   4.06612   4.07839   4.09301
 Alpha virt. eigenvalues --    4.10299   4.11492   4.12095   4.13840   4.14935
 Alpha virt. eigenvalues --    4.15366   4.15783   4.16253   4.16897   4.18359
 Alpha virt. eigenvalues --    4.19077   4.20952   4.21253   4.21973   4.23801
 Alpha virt. eigenvalues --    4.24246   4.25244   4.25917   4.26307   4.27810
 Alpha virt. eigenvalues --    4.28503   4.29496   4.30189   4.30784   4.31189
 Alpha virt. eigenvalues --    4.32871   4.34258   4.35144   4.35495   4.36671
 Alpha virt. eigenvalues --    4.37355   4.39112   4.40547   4.42097   4.42749
 Alpha virt. eigenvalues --    4.43215   4.45068   4.45443   4.46888   4.47755
 Alpha virt. eigenvalues --    4.48019   4.49144   4.51077   4.51754   4.52305
 Alpha virt. eigenvalues --    4.52989   4.54866   4.55005   4.57413   4.58232
 Alpha virt. eigenvalues --    4.58513   4.59949   4.60387   4.62410   4.63512
 Alpha virt. eigenvalues --    4.64446   4.66344   4.66475   4.67972   4.69652
 Alpha virt. eigenvalues --    4.71216   4.73062   4.74467   4.75791   4.76563
 Alpha virt. eigenvalues --    4.78219   4.80303   4.80508   4.82141   4.83191
 Alpha virt. eigenvalues --    4.88273   4.92619   4.92956   4.95111   4.96224
 Alpha virt. eigenvalues --    4.98716   4.99297   5.01216   5.04452   5.06820
 Alpha virt. eigenvalues --    5.08938   5.10099   5.12793   5.14032   5.16493
 Alpha virt. eigenvalues --    5.17361   5.17651   5.20488   5.23710   5.25690
 Alpha virt. eigenvalues --    5.25974   5.30142   5.37246   5.38091   5.39830
 Alpha virt. eigenvalues --    5.55885   5.61352   5.64780   5.67335   5.71006
 Alpha virt. eigenvalues --    5.75951   5.99980   6.09473   6.21169  15.48653
 Alpha virt. eigenvalues --   22.64616  22.66126  22.68190  22.70004  22.71256
 Alpha virt. eigenvalues --   22.73317  22.74929  22.77490  22.80175  22.81490
 Alpha virt. eigenvalues --   22.83866  22.86320  22.86588  22.93062  23.02799
 Alpha virt. eigenvalues --   23.06852  23.11164  33.19592
          Condensed to atoms (all electrons):
 Mulliken charges:
               1
     1  C   -0.364307
     2  C    0.205161
     3  C   -0.417280
     4  B   -0.760454
     5  C    0.003728
     6  C   -0.123372
     7  C   -0.190764
     8  C   -0.180035
     9  C    0.065548
    10  C   -0.144573
    11  C   -0.163149
    12  N   -0.122427
    13  C   -0.230628
    14  C   -0.175291
    15  C   -0.185851
    16  C   -0.127809
    17  C   -0.225859
    18  C   -0.114370
    19  C   -0.175248
    20  H    0.103582
    21  H    0.114866
    22  H    0.066953
    23  H    0.114838
    24  H    0.118621
    25  H    0.072161
    26  H    0.001881
    27  H    0.064894
    28  H    0.034358
    29  H    0.052853
    30  H    0.076265
    31  H    0.033901
    32  H    0.082114
    33  H    0.014216
    34  H    0.065229
    35  H    0.035605
    36  H    0.062863
    37  H    0.032636
    38  H    0.229730
    39  H    0.055738
    40  H    0.091438
    41  H    0.101930
    42  H    0.067182
    43  H    0.079554
    44  H    0.075060
    45  H    0.095345
    46  H    0.067999
    47  H    0.078857
    48  H    0.073668
    49  H    0.095294
    50  H    0.080899
    51  H    0.062885
    52  H    0.023565
 Sum of Mulliken charges =  -1.00000
 Mulliken charges with hydrogens summed into heavy atoms:
               1
     1  C   -0.078906
     2  C    0.205161
     3  C   -0.111661
     4  B   -0.736889
     5  C    0.005609
     6  C   -0.024120
     7  C   -0.061647
     8  C   -0.064019
     9  C    0.079763
    10  C   -0.043738
    11  C   -0.067649
    12  N   -0.122427
    13  C    0.054840
    14  C    0.018078
    15  C   -0.039114
    16  C    0.042595
    17  C   -0.079003
    18  C    0.054592
    19  C   -0.031465
 Electronic spatial extent (au):  <R**2>=           5921.9218
 Charge=             -1.0000 electrons
 Dipole moment (field-independent basis, Debye):
    X=             -5.6170    Y=              0.2599    Z=             -1.6348  Tot=              5.8558
 Quadrupole moment (field-independent basis, Debye-Ang):
   XX=           -165.9635   YY=           -140.2169   ZZ=           -140.4737
   XY=              2.6564   XZ=             -1.9436   YZ=             -1.1545
 Traceless Quadrupole moment (field-independent basis, Debye-Ang):
   XX=            -17.0788   YY=              8.6678   ZZ=              8.4110
   XY=              2.6564   XZ=             -1.9436   YZ=             -1.1545
 Octapole moment (field-independent basis, Debye-Ang**2):
  XXX=            -68.6722  YYY=              0.1760  ZZZ=            -12.4908  XYY=            -18.3223
  XXY=             13.3932  XXZ=             -2.4415  XZZ=            -22.6762  YZZ=             -3.2479
  YYZ=             -6.1870  XYZ=              2.2301
 Hexadecapole moment (field-independent basis, Debye-Ang**3):
 XXXX=          -6648.9191 YYYY=          -1674.3478 ZZZZ=          -1132.7101 XXXY=             12.2605
 XXXZ=            -27.7754 YYYX=             16.4912 YYYZ=            -13.2353 ZZZX=              0.5997
 ZZZY=            -18.5118 XXYY=          -1344.2127 XXZZ=          -1254.5119 YYZZ=           -464.4275
 XXYZ=             23.4479 YYXZ=              3.2886 ZZXY=             16.1450
 N-N= 1.618926284771D+03 E-N=-4.988482970042D+03  KE= 7.422497604964D+02
 No NMR shielding tensors so no spin-rotation constants.
 Leave Link  601 at Fri Jan 24 17:34:59 2025, MaxMem=  3221225472 cpu:              13.4 elap:               0.7
 (Enter /software/gaussian/G16-C.01/avx2/g16/l9999.exe)
 Unable to Open any file for archive entry.
 1\1\GINC-NODE25\SP\RPBE1PBE\def2TZVP\C17H33B1N1(1-)\LAPLAZA\24-Jan-202
 5\0\\#p def2tzvp pbe1pbe integral=ultrafinegrid geom=allcheck guess=re
 ad em=gd3bj\\with_hydride\\-1,1\C,0,-0.1024215225,2.5731472428,-0.8202
 762432\C,0,0.2627792845,1.0789744837,-0.7785955716\C,0,0.7949029753,0.
 7165055603,-2.1648152255\B,0,1.422540567,0.8669224213,0.421290272\C,0,
 3.0292255042,1.1807011426,0.141874292\C,0,3.7136860194,0.2196464174,-0
 .8427454058\C,0,3.579954238,-1.251481362,-0.4348672744\C,0,2.196275175
 8,-1.6321121332,0.0961792925\C,0,1.6633663065,-0.613903236,1.109960328
 1\C,0,2.7350892353,-0.252425811,2.1537696577\C,0,3.5763633738,0.913810
 4769,1.5568594779\N,0,-0.9472999742,0.2474493851,-0.4865100029\C,0,-1.
 4299035086,0.3677650673,0.8713641624\C,0,-2.0388721076,-0.9187720319,1
 .4582732907\C,0,-3.5666127928,-0.9799709986,1.5718169156\C,0,-4.373169
 1792,-0.4281532129,0.4017769729\C,0,-4.1923435516,-1.0996658273,-0.954
 7857581\C,0,-2.7883402943,-1.0704394106,-1.5669766662\C,0,-2.005972811
 6,0.2552363313,-1.4697469577\H,0,0.8057462745,3.181922327,-0.960533910
 8\H,0,-0.5562028252,2.8961865426,0.1296445167\H,0,-0.8028106064,2.8229
 005505,-1.6428041275\H,0,1.0395842307,-0.352753847,-2.2487107395\H,0,1
 .7091800664,1.2920239428,-2.3618442046\H,0,0.1002961119,0.9678126855,-
 2.9896375254\H,0,3.2583846947,2.2188148321,-0.1666314143\H,0,3.3099515
 96,0.3543022896,-1.8570540747\H,0,4.7962134179,0.4535795652,-0.9233902
 629\H,0,3.8659323436,-1.9082830613,-1.2778298503\H,0,4.3185200706,-1.4
 612706846,0.3598298266\H,0,2.2710613333,-2.6467344984,0.541152291\H,0,
 1.4710836149,-1.7202173158,-0.731456693\H,0,0.7832983806,-1.0561728916
 ,1.6072424244\H,0,2.2404489854,0.0783657046,3.082073602\H,0,3.37406385
 ,-1.1137594713,2.4366492253\H,0,3.4552695116,1.8183214521,2.1746747223
 \H,0,4.6601902649,0.6769834545,1.5572387702\H,0,-0.5654783776,0.663678
 0946,1.4764971936\H,0,-2.1642153225,1.2031972116,0.9772929228\H,0,-1.6
 315817706,-1.0690253545,2.4722187337\H,0,-1.6508350813,-1.762250417,0.
 8695059425\H,0,-3.8737390427,-2.0239313443,1.7700355708\H,0,-3.8727269
 236,-0.4101443265,2.468125134\H,0,-5.4445570322,-0.4759274024,0.667271
 491\H,0,-4.1473331461,0.6456289424,0.295487238\H,0,-4.5341463333,-2.14
 97232495,-0.8935402232\H,0,-4.8893484956,-0.6050977749,-1.6562009399\H
 ,0,-2.8944433828,-1.3454789291,-2.6308342632\H,0,-2.1486479607,-1.8501
 085597,-1.1290305614\H,0,-1.5541100052,0.4412110197,-2.4505376697\H,0,
 -2.7257218547,1.0971417108,-1.3198581099\H,0,1.098520986,1.6494443669,
 1.349304169\\Version=ES64L-G16RevC.01\State=1-A\HF=-746.6938782\RMSD=2
 .718e-09\Dipole=-2.1100692,-0.7583888,-0.5293177\Quadrupole=-11.995655
 7,5.2983032,6.6973525,-2.3259047,-3.7197399,-0.0051355\PG=C01 [X(C17H3
 3B1N1)]\\@
 The archive entry for this job was punched.


 CURIOUSER AND CURIOUSER

                  -- ALICE, IN WONDERLAND
 Job cpu time:       0 days  2 hours 53 minutes 11.8 seconds.
 Elapsed time:       0 days  0 hours  7 minutes 13.2 seconds.
 File lengths (MBytes):  RWF=    322 Int=      0 D2E=      0 Chk=     47 Scr=      1
 Normal termination of Gaussian 16 at Fri Jan 24 17:34:59 2025.
