 Entering Gaussian System, Link 0=g16
 Input=with_proton.com
 Output=with_proton.log
 Initial command:
 /software/gaussian/G16-C.01/avx2/g16/l1.exe "/scratch/laplaza/9953610.slurm/Gau-14522.inp" -scrdir="/scratch/laplaza/9953610.slurm/"
 Entering Link 1 = /software/gaussian/G16-C.01/avx2/g16/l1.exe PID=     14523.
  
 Copyright (c) 1988-2019, Gaussian, Inc.  All Rights Reserved.
  
 This is part of the Gaussian(R) 16 program.  It is based on
 the Gaussian(R) 09 system (copyright 2009, Gaussian, Inc.),
 the Gaussian(R) 03 system (copyright 2003, Gaussian, Inc.),
 the Gaussian(R) 98 system (copyright 1998, Gaussian, Inc.),
 the Gaussian(R) 94 system (copyright 1995, Gaussian, Inc.),
 the Gaussian 92(TM) system (copyright 1992, Gaussian, Inc.),
 the Gaussian 90(TM) system (copyright 1990, Gaussian, Inc.),
 the Gaussian 88(TM) system (copyright 1988, Gaussian, Inc.),
 the Gaussian 86(TM) system (copyright 1986, Carnegie Mellon
 University), and the Gaussian 82(TM) system (copyright 1983,
 Carnegie Mellon University). Gaussian is a federally registered
 trademark of Gaussian, Inc.
  
 This software contains proprietary and confidential information,
 including trade secrets, belonging to Gaussian, Inc.
  
 This software is provided under written license and may be
 used, copied, transmitted, or stored only in accord with that
 written license.
  
 The following legend is applicable only to US Government
 contracts under FAR:
  
                    RESTRICTED RIGHTS LEGEND
  
 Use, reproduction and disclosure by the US Government is
 subject to restrictions as set forth in subparagraphs (a)
 and (c) of the Commercial Computer Software - Restricted
 Rights clause in FAR 52.227-19.
  
 Gaussian, Inc.
 340 Quinnipiac St., Bldg. 40, Wallingford CT 06492
  
  
 ---------------------------------------------------------------
 Warning -- This program may not be used in any manner that
 competes with the business of Gaussian, Inc. or will provide
 assistance to any competitor of Gaussian, Inc.  The licensee
 of this program is prohibited from giving any competitor of
 Gaussian, Inc. access to this program.  By using this program,
 the user acknowledges that Gaussian, Inc. is engaged in the
 business of creating and licensing software in the field of
 computational chemistry and represents and warrants to the
 licensee that it is not a competitor of Gaussian, Inc. and that
 it will not use this program in any manner prohibited above.
 ---------------------------------------------------------------
  

 Cite this work as:
 Gaussian 16, Revision C.01,
 M. J. Frisch, G. W. Trucks, H. B. Schlegel, G. E. Scuseria, 
 M. A. Robb, J. R. Cheeseman, G. Scalmani, V. Barone, 
 G. A. Petersson, H. Nakatsuji, X. Li, M. Caricato, A. V. Marenich, 
 J. Bloino, B. G. Janesko, R. Gomperts, B. Mennucci, H. P. Hratchian, 
 J. V. Ortiz, A. F. Izmaylov, J. L. Sonnenberg, D. Williams-Young, 
 F. Ding, F. Lipparini, F. Egidi, J. Goings, B. Peng, A. Petrone, 
 T. Henderson, D. Ranasinghe, V. G. Zakrzewski, J. Gao, N. Rega, 
 G. Zheng, W. Liang, M. Hada, M. Ehara, K. Toyota, R. Fukuda, 
 J. Hasegawa, M. Ishida, T. Nakajima, Y. Honda, O. Kitao, H. Nakai, 
 T. Vreven, K. Throssell, J. A. Montgomery, Jr., J. E. Peralta, 
 F. Ogliaro, M. J. Bearpark, J. J. Heyd, E. N. Brothers, K. N. Kudin, 
 V. N. Staroverov, T. A. Keith, R. Kobayashi, J. Normand, 
 K. Raghavachari, A. P. Rendell, J. C. Burant, S. S. Iyengar, 
 J. Tomasi, M. Cossi, J. M. Millam, M. Klene, C. Adamo, R. Cammi, 
 J. W. Ochterski, R. L. Martin, K. Morokuma, O. Farkas, 
 J. B. Foresman, and D. J. Fox, Gaussian, Inc., Wallingford CT, 2019.
 
 ******************************************
 Gaussian 16:  ES64L-G16RevC.01  3-Jul-2019
                24-Jan-2025 
 ******************************************
 %nprocshared=24
 Will use up to   24 processors via shared memory.
 %mem=24GB
 %chk=with_proton.chk
 -------------------------------------------------------------------
 #p opt freq=noraman def2svp pbe1pbe em=gd3bj integral=ultrafinegrid
 -------------------------------------------------------------------
 1/18=20,19=15,26=4,38=1/1,3;
 2/9=110,12=2,17=6,18=5,40=1/2;
 3/5=43,7=101,11=2,25=1,30=1,71=1,74=-13,75=-5,124=41/1,2,3;
 4//1;
 5/5=2,38=5/2;
 6/7=2,8=2,9=2,10=2,28=1/1;
 7//1,2,3,16;
 1/18=20,19=15,26=4/3(2);
 2/9=110/2;
 99//99;
 2/9=110/2;
 3/5=43,7=101,11=2,25=1,30=1,71=1,74=-13,75=-5,124=41/1,2,3;
 4/5=5,16=3,69=1/1;
 5/5=2,38=5/2;
 7//1,2,3,16;
 1/18=20,19=15,26=4/3(-5);
 2/9=110/2;
 6/7=2,8=2,9=2,10=2,19=2,28=1/1;
 99/9=1/99;
 Leave Link    1 at Fri Jan 24 16:52:54 2025, MaxMem=  3221225472 cpu:               1.5 elap:               0.1
 (Enter /software/gaussian/G16-C.01/avx2/g16/l101.exe)
 -----------
 with_proton
 -----------
 Symbolic Z-matrix:
 Charge =  1 Multiplicity = 1
 C                     0.14814   2.26098  -1.21327 
 C                     0.27158   0.72058  -1.14578 
 C                     0.57121   0.17958  -2.56959 
 B                     1.56196   0.2797   -0.2739 
 C                     2.5785    1.14505   0.5253 
 C                     3.95715   0.96072  -0.11981 
 C                     4.42009  -0.52568  -0.13686 
 C                     3.28906  -1.5109   -0.51262 
 C                     1.93782  -1.16555   0.17309 
 C                     2.11461  -0.98312   1.69846 
 C                     2.51424   0.51563   1.92785 
 N                    -0.99239   0.11452  -0.56315 
 C                    -1.27986   0.53816   0.8249 
 C                    -1.87205  -0.58607   1.67783 
 C                    -3.38535  -0.49458   1.95566 
 C                    -4.29825   0.01554   0.84746 
 C                    -4.36925  -0.89295  -0.40776 
 C                    -3.07713  -1.08904  -1.20624 
 C                    -2.19127   0.18675  -1.41058 
 H                     1.05031   2.7032   -1.67537 
 H                     0.01602   2.71123  -0.22394 
 H                    -0.74343   2.56556  -1.82314 
 H                     0.3828   -0.91592  -2.599 
 H                     1.60036   0.37585  -2.85829 
 H                    -0.06331   0.67917  -3.37045 
 H                     2.30675   2.23884   0.58239 
 H                     3.92844   1.3417   -1.16694 
 H                     4.72146   1.59119   0.41802 
 H                     5.24515  -0.62804  -0.87928 
 H                     4.85383  -0.78151   0.84739 
 H                     3.60458  -2.52429  -0.20164 
 H                     3.14598  -1.5364   -1.61673 
 H                     1.16184  -1.91062  -0.0643 
 H                     1.14144  -1.19429   2.20779 
 H                     2.86548  -1.68263   2.11832 
 H                     1.7631    1.0247    2.56156 
 H                     3.49914   0.56597   2.43642 
 H                    -0.36517   0.88751   1.38831 
 H                    -1.91879   1.47042   0.85165 
 H                    -1.36772  -0.60101   2.66834 
 H                    -1.62569  -1.585     1.2362 
 H                    -3.7625   -1.48213   2.32466 
 H                    -3.5259    0.19295   2.83363 
 H                    -5.32521   0.05747   1.2558 
 H                    -4.06644   1.0718    0.55862 
 H                    -4.75272  -1.87919  -0.11827 
 H                    -5.11759  -0.4355   -1.09103 
 H                    -3.36001  -1.47427  -2.21433 
 H                    -2.47829  -1.90415  -0.7895 
 H                    -1.96831   0.21432  -2.47347 
 H                    -2.76512   1.12161  -1.24587 
 H                    -0.77496  -0.963    -0.52207 
 
 ITRead=  0  0  0  0  0  0  0  0  0  0  0  0  0  0  0  0  0  0  0  0
 ITRead=  0  0  0  0  0  0  0  0  0  0  0  0  0  0  0  0  0  0  0  0
 ITRead=  0  0  0  0  0  0  0  0  0  0  0  0
 MicOpt= -1 -1 -1 -1 -1 -1 -1 -1 -1 -1 -1 -1 -1 -1 -1 -1 -1 -1 -1 -1
 MicOpt= -1 -1 -1 -1 -1 -1 -1 -1 -1 -1 -1 -1 -1 -1 -1 -1 -1 -1 -1 -1
 MicOpt= -1 -1 -1 -1 -1 -1 -1 -1 -1 -1 -1 -1
 NAtoms=     52 NQM=       52 NQMF=       0 NMMI=      0 NMMIF=      0
                NMic=       0 NMicF=      0.
                    Isotopes and Nuclear Properties:
 (Nuclear quadrupole moments (NQMom) in fm**2, nuclear magnetic moments (NMagM)
  in nuclear magnetons)

  Atom         1           2           3           4           5           6           7           8           9          10
 IAtWgt=          12          12          12          11          12          12          12          12          12          12
 AtmWgt=  12.0000000  12.0000000  12.0000000  11.0093053  12.0000000  12.0000000  12.0000000  12.0000000  12.0000000  12.0000000
 NucSpn=           0           0           0           3           0           0           0           0           0           0
 AtZEff=  -0.0000000  -0.0000000  -0.0000000  -0.0000000  -0.0000000  -0.0000000  -0.0000000  -0.0000000  -0.0000000  -0.0000000
 NQMom=    0.0000000   0.0000000   0.0000000   4.0590000   0.0000000   0.0000000   0.0000000   0.0000000   0.0000000   0.0000000
 NMagM=    0.0000000   0.0000000   0.0000000   2.6886370   0.0000000   0.0000000   0.0000000   0.0000000   0.0000000   0.0000000
 AtZNuc=   6.0000000   6.0000000   6.0000000   5.0000000   6.0000000   6.0000000   6.0000000   6.0000000   6.0000000   6.0000000

  Atom        11          12          13          14          15          16          17          18          19          20
 IAtWgt=          12          14          12          12          12          12          12          12          12           1
 AtmWgt=  12.0000000  14.0030740  12.0000000  12.0000000  12.0000000  12.0000000  12.0000000  12.0000000  12.0000000   1.0078250
 NucSpn=           0           2           0           0           0           0           0           0           0           1
 AtZEff=  -0.0000000  -0.0000000  -0.0000000  -0.0000000  -0.0000000  -0.0000000  -0.0000000  -0.0000000  -0.0000000  -0.0000000
 NQMom=    0.0000000   2.0440000   0.0000000   0.0000000   0.0000000   0.0000000   0.0000000   0.0000000   0.0000000   0.0000000
 NMagM=    0.0000000   0.4037610   0.0000000   0.0000000   0.0000000   0.0000000   0.0000000   0.0000000   0.0000000   2.7928460
 AtZNuc=   6.0000000   7.0000000   6.0000000   6.0000000   6.0000000   6.0000000   6.0000000   6.0000000   6.0000000   1.0000000

  Atom        21          22          23          24          25          26          27          28          29          30
 IAtWgt=           1           1           1           1           1           1           1           1           1           1
 AtmWgt=   1.0078250   1.0078250   1.0078250   1.0078250   1.0078250   1.0078250   1.0078250   1.0078250   1.0078250   1.0078250
 NucSpn=           1           1           1           1           1           1           1           1           1           1
 AtZEff=  -0.0000000  -0.0000000  -0.0000000  -0.0000000  -0.0000000  -0.0000000  -0.0000000  -0.0000000  -0.0000000  -0.0000000
 NQMom=    0.0000000   0.0000000   0.0000000   0.0000000   0.0000000   0.0000000   0.0000000   0.0000000   0.0000000   0.0000000
 NMagM=    2.7928460   2.7928460   2.7928460   2.7928460   2.7928460   2.7928460   2.7928460   2.7928460   2.7928460   2.7928460
 AtZNuc=   1.0000000   1.0000000   1.0000000   1.0000000   1.0000000   1.0000000   1.0000000   1.0000000   1.0000000   1.0000000

  Atom        31          32          33          34          35          36          37          38          39          40
 IAtWgt=           1           1           1           1           1           1           1           1           1           1
 AtmWgt=   1.0078250   1.0078250   1.0078250   1.0078250   1.0078250   1.0078250   1.0078250   1.0078250   1.0078250   1.0078250
 NucSpn=           1           1           1           1           1           1           1           1           1           1
 AtZEff=  -0.0000000  -0.0000000  -0.0000000  -0.0000000  -0.0000000  -0.0000000  -0.0000000  -0.0000000  -0.0000000  -0.0000000
 NQMom=    0.0000000   0.0000000   0.0000000   0.0000000   0.0000000   0.0000000   0.0000000   0.0000000   0.0000000   0.0000000
 NMagM=    2.7928460   2.7928460   2.7928460   2.7928460   2.7928460   2.7928460   2.7928460   2.7928460   2.7928460   2.7928460
 AtZNuc=   1.0000000   1.0000000   1.0000000   1.0000000   1.0000000   1.0000000   1.0000000   1.0000000   1.0000000   1.0000000

  Atom        41          42          43          44          45          46          47          48          49          50
 IAtWgt=           1           1           1           1           1           1           1           1           1           1
 AtmWgt=   1.0078250   1.0078250   1.0078250   1.0078250   1.0078250   1.0078250   1.0078250   1.0078250   1.0078250   1.0078250
 NucSpn=           1           1           1           1           1           1           1           1           1           1
 AtZEff=  -0.0000000  -0.0000000  -0.0000000  -0.0000000  -0.0000000  -0.0000000  -0.0000000  -0.0000000  -0.0000000  -0.0000000
 NQMom=    0.0000000   0.0000000   0.0000000   0.0000000   0.0000000   0.0000000   0.0000000   0.0000000   0.0000000   0.0000000
 NMagM=    2.7928460   2.7928460   2.7928460   2.7928460   2.7928460   2.7928460   2.7928460   2.7928460   2.7928460   2.7928460
 AtZNuc=   1.0000000   1.0000000   1.0000000   1.0000000   1.0000000   1.0000000   1.0000000   1.0000000   1.0000000   1.0000000

  Atom        51          52
 IAtWgt=           1           1
 AtmWgt=   1.0078250   1.0078250
 NucSpn=           1           1
 AtZEff=  -0.0000000  -0.0000000
 NQMom=    0.0000000   0.0000000
 NMagM=    2.7928460   2.7928460
 AtZNuc=   1.0000000   1.0000000
 Leave Link  101 at Fri Jan 24 16:52:54 2025, MaxMem=  3221225472 cpu:              17.5 elap:               0.7
 (Enter /software/gaussian/G16-C.01/avx2/g16/l103.exe)

 GradGradGradGradGradGradGradGradGradGradGradGradGradGradGradGradGradGrad
 Berny optimization.
 Initialization pass.
                           ----------------------------
                           !    Initial Parameters    !
                           ! (Angstroms and Degrees)  !
 --------------------------                            --------------------------
 ! Name  Definition              Value          Derivative Info.                !
 --------------------------------------------------------------------------------
 ! R1    R(1,2)                  1.5468         estimate D2E/DX2                !
 ! R2    R(1,20)                 1.1059         estimate D2E/DX2                !
 ! R3    R(1,21)                 1.095          estimate D2E/DX2                !
 ! R4    R(1,22)                 1.1223         estimate D2E/DX2                !
 ! R5    R(2,3)                  1.5523         estimate D2E/DX2                !
 ! R6    R(2,4)                  1.6185         estimate D2E/DX2                !
 ! R7    R(2,12)                 1.518          estimate D2E/DX2                !
 ! R8    R(3,23)                 1.112          estimate D2E/DX2                !
 ! R9    R(3,24)                 1.0867         estimate D2E/DX2                !
 ! R10   R(3,25)                 1.1374         estimate D2E/DX2                !
 ! R11   R(4,5)                  1.5559         estimate D2E/DX2                !
 ! R12   R(4,9)                  1.5588         estimate D2E/DX2                !
 ! R13   R(5,6)                  1.5332         estimate D2E/DX2                !
 ! R14   R(5,11)                 1.5387         estimate D2E/DX2                !
 ! R15   R(5,26)                 1.1285         estimate D2E/DX2                !
 ! R16   R(6,7)                  1.5569         estimate D2E/DX2                !
 ! R17   R(6,27)                 1.1147         estimate D2E/DX2                !
 ! R18   R(6,28)                 1.1274         estimate D2E/DX2                !
 ! R19   R(7,8)                  1.5463         estimate D2E/DX2                !
 ! R20   R(7,29)                 1.1146         estimate D2E/DX2                !
 ! R21   R(7,30)                 1.1056         estimate D2E/DX2                !
 ! R22   R(8,9)                  1.5541         estimate D2E/DX2                !
 ! R23   R(8,31)                 1.106          estimate D2E/DX2                !
 ! R24   R(8,32)                 1.1136         estimate D2E/DX2                !
 ! R25   R(9,10)                 1.5464         estimate D2E/DX2                !
 ! R26   R(9,33)                 1.1017         estimate D2E/DX2                !
 ! R27   R(10,11)                1.568          estimate D2E/DX2                !
 ! R28   R(10,34)                1.1185         estimate D2E/DX2                !
 ! R29   R(10,35)                1.1088         estimate D2E/DX2                !
 ! R30   R(11,36)                1.1068         estimate D2E/DX2                !
 ! R31   R(11,37)                1.1096         estimate D2E/DX2                !
 ! R32   R(12,13)                1.4795         estimate D2E/DX2                !
 ! R33   R(12,19)                1.4699         estimate D2E/DX2                !
 ! R34   R(12,52)                1.1            estimate D2E/DX2                !
 ! R35   R(13,14)                1.5304         estimate D2E/DX2                !
 ! R36   R(13,38)                1.1297         estimate D2E/DX2                !
 ! R37   R(13,39)                1.1305         estimate D2E/DX2                !
 ! R38   R(14,15)                1.5413         estimate D2E/DX2                !
 ! R39   R(14,40)                1.1116         estimate D2E/DX2                !
 ! R40   R(14,41)                1.1196         estimate D2E/DX2                !
 ! R41   R(15,16)                1.5237         estimate D2E/DX2                !
 ! R42   R(15,42)                1.1197         estimate D2E/DX2                !
 ! R43   R(15,43)                1.124          estimate D2E/DX2                !
 ! R44   R(16,17)                1.5511         estimate D2E/DX2                !
 ! R45   R(16,44)                1.106          estimate D2E/DX2                !
 ! R46   R(16,45)                1.1193         estimate D2E/DX2                !
 ! R47   R(17,18)                1.5315         estimate D2E/DX2                !
 ! R48   R(17,46)                1.097          estimate D2E/DX2                !
 ! R49   R(17,47)                1.1118         estimate D2E/DX2                !
 ! R50   R(18,19)                1.5666         estimate D2E/DX2                !
 ! R51   R(18,48)                1.1156         estimate D2E/DX2                !
 ! R52   R(18,49)                1.0939         estimate D2E/DX2                !
 ! R53   R(19,50)                1.0864         estimate D2E/DX2                !
 ! R54   R(19,51)                1.1092         estimate D2E/DX2                !
 ! A1    A(2,1,20)             110.5692         estimate D2E/DX2                !
 ! A2    A(2,1,21)             112.315          estimate D2E/DX2                !
 ! A3    A(2,1,22)             110.9386         estimate D2E/DX2                !
 ! A4    A(20,1,21)            108.1522         estimate D2E/DX2                !
 ! A5    A(20,1,22)            108.2087         estimate D2E/DX2                !
 ! A6    A(21,1,22)            106.4713         estimate D2E/DX2                !
 ! A7    A(1,2,3)              108.8111         estimate D2E/DX2                !
 ! A8    A(1,2,4)              111.0017         estimate D2E/DX2                !
 ! A9    A(1,2,12)             110.3579         estimate D2E/DX2                !
 ! A10   A(3,2,4)              104.1981         estimate D2E/DX2                !
 ! A11   A(3,2,12)             111.9385         estimate D2E/DX2                !
 ! A12   A(4,2,12)             110.385          estimate D2E/DX2                !
 ! A13   A(2,3,23)             109.5665         estimate D2E/DX2                !
 ! A14   A(2,3,24)             111.3157         estimate D2E/DX2                !
 ! A15   A(2,3,25)             112.6485         estimate D2E/DX2                !
 ! A16   A(23,3,24)            109.3517         estimate D2E/DX2                !
 ! A17   A(23,3,25)            108.6385         estimate D2E/DX2                !
 ! A18   A(24,3,25)            105.1849         estimate D2E/DX2                !
 ! A19   A(2,4,5)              130.2466         estimate D2E/DX2                !
 ! A20   A(2,4,9)              126.8171         estimate D2E/DX2                !
 ! A21   A(5,4,9)              102.1707         estimate D2E/DX2                !
 ! A22   A(4,5,6)              107.727          estimate D2E/DX2                !
 ! A23   A(4,5,11)             102.3229         estimate D2E/DX2                !
 ! A24   A(4,5,26)             114.0613         estimate D2E/DX2                !
 ! A25   A(6,5,11)             111.8334         estimate D2E/DX2                !
 ! A26   A(6,5,26)             110.7533         estimate D2E/DX2                !
 ! A27   A(11,5,26)            109.8962         estimate D2E/DX2                !
 ! A28   A(5,6,7)              112.7523         estimate D2E/DX2                !
 ! A29   A(5,6,27)             109.3304         estimate D2E/DX2                !
 ! A30   A(5,6,28)             109.9772         estimate D2E/DX2                !
 ! A31   A(7,6,27)             108.8857         estimate D2E/DX2                !
 ! A32   A(7,6,28)             109.7281         estimate D2E/DX2                !
 ! A33   A(27,6,28)            105.9316         estimate D2E/DX2                !
 ! A34   A(6,7,8)              113.1699         estimate D2E/DX2                !
 ! A35   A(6,7,29)             108.365          estimate D2E/DX2                !
 ! A36   A(6,7,30)             109.1362         estimate D2E/DX2                !
 ! A37   A(8,7,29)             108.7267         estimate D2E/DX2                !
 ! A38   A(8,7,30)             110.8459         estimate D2E/DX2                !
 ! A39   A(29,7,30)            106.3389         estimate D2E/DX2                !
 ! A40   A(7,8,9)              112.7775         estimate D2E/DX2                !
 ! A41   A(7,8,31)             107.8668         estimate D2E/DX2                !
 ! A42   A(7,8,32)             110.4557         estimate D2E/DX2                !
 ! A43   A(9,8,31)             109.1223         estimate D2E/DX2                !
 ! A44   A(9,8,32)             109.3193         estimate D2E/DX2                !
 ! A45   A(31,8,32)            107.1239         estimate D2E/DX2                !
 ! A46   A(4,9,8)              106.8071         estimate D2E/DX2                !
 ! A47   A(4,9,10)             101.5983         estimate D2E/DX2                !
 ! A48   A(4,9,33)             113.2927         estimate D2E/DX2                !
 ! A49   A(8,9,10)             111.2254         estimate D2E/DX2                !
 ! A50   A(8,9,33)             111.5341         estimate D2E/DX2                !
 ! A51   A(10,9,33)            111.8933         estimate D2E/DX2                !
 ! A52   A(9,10,11)            106.6311         estimate D2E/DX2                !
 ! A53   A(9,10,34)            109.1127         estimate D2E/DX2                !
 ! A54   A(9,10,35)            112.1182         estimate D2E/DX2                !
 ! A55   A(11,10,34)           109.6084         estimate D2E/DX2                !
 ! A56   A(11,10,35)           112.0262         estimate D2E/DX2                !
 ! A57   A(34,10,35)           107.3179         estimate D2E/DX2                !
 ! A58   A(5,11,10)            105.5629         estimate D2E/DX2                !
 ! A59   A(5,11,36)            111.2299         estimate D2E/DX2                !
 ! A60   A(5,11,37)            111.233          estimate D2E/DX2                !
 ! A61   A(10,11,36)           110.5145         estimate D2E/DX2                !
 ! A62   A(10,11,37)           109.6728         estimate D2E/DX2                !
 ! A63   A(36,11,37)           108.609          estimate D2E/DX2                !
 ! A64   A(2,12,13)            114.0515         estimate D2E/DX2                !
 ! A65   A(2,12,19)            115.9905         estimate D2E/DX2                !
 ! A66   A(2,12,52)            103.9353         estimate D2E/DX2                !
 ! A67   A(13,12,19)           111.6135         estimate D2E/DX2                !
 ! A68   A(13,12,52)           106.4912         estimate D2E/DX2                !
 ! A69   A(19,12,52)           103.3494         estimate D2E/DX2                !
 ! A70   A(12,13,14)           112.8135         estimate D2E/DX2                !
 ! A71   A(12,13,38)           113.5252         estimate D2E/DX2                !
 ! A72   A(12,13,39)           111.602          estimate D2E/DX2                !
 ! A73   A(14,13,38)           105.22           estimate D2E/DX2                !
 ! A74   A(14,13,39)           111.9561         estimate D2E/DX2                !
 ! A75   A(38,13,39)           100.9993         estimate D2E/DX2                !
 ! A76   A(13,14,15)           115.8987         estimate D2E/DX2                !
 ! A77   A(13,14,40)           109.3253         estimate D2E/DX2                !
 ! A78   A(13,14,41)           110.5136         estimate D2E/DX2                !
 ! A79   A(15,14,40)           106.5965         estimate D2E/DX2                !
 ! A80   A(15,14,41)           109.8825         estimate D2E/DX2                !
 ! A81   A(40,14,41)           103.8657         estimate D2E/DX2                !
 ! A82   A(14,15,16)           118.49           estimate D2E/DX2                !
 ! A83   A(14,15,42)           109.7413         estimate D2E/DX2                !
 ! A84   A(14,15,43)           107.4513         estimate D2E/DX2                !
 ! A85   A(16,15,42)           109.4608         estimate D2E/DX2                !
 ! A86   A(16,15,43)           106.7632         estimate D2E/DX2                !
 ! A87   A(42,15,43)           103.8845         estimate D2E/DX2                !
 ! A88   A(15,16,17)           114.8282         estimate D2E/DX2                !
 ! A89   A(15,16,44)           107.4867         estimate D2E/DX2                !
 ! A90   A(15,16,45)           112.3048         estimate D2E/DX2                !
 ! A91   A(17,16,44)           106.1692         estimate D2E/DX2                !
 ! A92   A(17,16,45)           110.6934         estimate D2E/DX2                !
 ! A93   A(44,16,45)           104.5848         estimate D2E/DX2                !
 ! A94   A(16,17,18)           117.2754         estimate D2E/DX2                !
 ! A95   A(16,17,46)           109.2087         estimate D2E/DX2                !
 ! A96   A(16,17,47)           106.6876         estimate D2E/DX2                !
 ! A97   A(18,17,46)           108.5041         estimate D2E/DX2                !
 ! A98   A(18,17,47)           107.4655         estimate D2E/DX2                !
 ! A99   A(46,17,47)           107.2642         estimate D2E/DX2                !
 ! A100  A(17,18,19)           116.156          estimate D2E/DX2                !
 ! A101  A(17,18,48)           107.541          estimate D2E/DX2                !
 ! A102  A(17,18,49)           111.0161         estimate D2E/DX2                !
 ! A103  A(19,18,48)           107.862          estimate D2E/DX2                !
 ! A104  A(19,18,49)           110.3011         estimate D2E/DX2                !
 ! A105  A(48,18,49)           103.0461         estimate D2E/DX2                !
 ! A106  A(12,19,18)           110.2421         estimate D2E/DX2                !
 ! A107  A(12,19,50)           113.4478         estimate D2E/DX2                !
 ! A108  A(12,19,51)           112.1949         estimate D2E/DX2                !
 ! A109  A(18,19,50)           105.3275         estimate D2E/DX2                !
 ! A110  A(18,19,51)           111.9905         estimate D2E/DX2                !
 ! A111  A(50,19,51)           103.3009         estimate D2E/DX2                !
 ! D1    D(20,1,2,3)           -54.4991         estimate D2E/DX2                !
 ! D2    D(20,1,2,4)            59.6006         estimate D2E/DX2                !
 ! D3    D(20,1,2,12)         -177.6872         estimate D2E/DX2                !
 ! D4    D(21,1,2,3)          -175.4107         estimate D2E/DX2                !
 ! D5    D(21,1,2,4)           -61.311          estimate D2E/DX2                !
 ! D6    D(21,1,2,12)           61.4012         estimate D2E/DX2                !
 ! D7    D(22,1,2,3)            65.5634         estimate D2E/DX2                !
 ! D8    D(22,1,2,4)           179.6631         estimate D2E/DX2                !
 ! D9    D(22,1,2,12)          -57.6247         estimate D2E/DX2                !
 ! D10   D(1,2,3,23)          -164.25           estimate D2E/DX2                !
 ! D11   D(1,2,3,24)            74.6734         estimate D2E/DX2                !
 ! D12   D(1,2,3,25)           -43.1972         estimate D2E/DX2                !
 ! D13   D(4,2,3,23)            77.2778         estimate D2E/DX2                !
 ! D14   D(4,2,3,24)           -43.7988         estimate D2E/DX2                !
 ! D15   D(4,2,3,25)          -161.6694         estimate D2E/DX2                !
 ! D16   D(12,2,3,23)          -42.0139         estimate D2E/DX2                !
 ! D17   D(12,2,3,24)         -163.0905         estimate D2E/DX2                !
 ! D18   D(12,2,3,25)           79.0389         estimate D2E/DX2                !
 ! D19   D(1,2,4,5)              3.9721         estimate D2E/DX2                !
 ! D20   D(1,2,4,9)            172.1128         estimate D2E/DX2                !
 ! D21   D(3,2,4,5)            120.9344         estimate D2E/DX2                !
 ! D22   D(3,2,4,9)            -70.9249         estimate D2E/DX2                !
 ! D23   D(12,2,4,5)          -118.7245         estimate D2E/DX2                !
 ! D24   D(12,2,4,9)            49.4162         estimate D2E/DX2                !
 ! D25   D(1,2,12,13)          -62.0315         estimate D2E/DX2                !
 ! D26   D(1,2,12,19)           69.7533         estimate D2E/DX2                !
 ! D27   D(1,2,12,52)         -177.5641         estimate D2E/DX2                !
 ! D28   D(3,2,12,13)          176.6203         estimate D2E/DX2                !
 ! D29   D(3,2,12,19)          -51.5949         estimate D2E/DX2                !
 ! D30   D(3,2,12,52)           61.0877         estimate D2E/DX2                !
 ! D31   D(4,2,12,13)           61.0409         estimate D2E/DX2                !
 ! D32   D(4,2,12,19)         -167.1743         estimate D2E/DX2                !
 ! D33   D(4,2,12,52)          -54.4917         estimate D2E/DX2                !
 ! D34   D(2,4,5,6)           -116.6626         estimate D2E/DX2                !
 ! D35   D(2,4,5,11)           125.3364         estimate D2E/DX2                !
 ! D36   D(2,4,5,26)             6.7141         estimate D2E/DX2                !
 ! D37   D(9,4,5,6)             73.0266         estimate D2E/DX2                !
 ! D38   D(9,4,5,11)           -44.9744         estimate D2E/DX2                !
 ! D39   D(9,4,5,26)          -163.5967         estimate D2E/DX2                !
 ! D40   D(2,4,9,8)            116.5669         estimate D2E/DX2                !
 ! D41   D(2,4,9,10)          -126.8132         estimate D2E/DX2                !
 ! D42   D(2,4,9,33)            -6.6286         estimate D2E/DX2                !
 ! D43   D(5,4,9,8)            -72.6671         estimate D2E/DX2                !
 ! D44   D(5,4,9,10)            43.9528         estimate D2E/DX2                !
 ! D45   D(5,4,9,33)           164.1374         estimate D2E/DX2                !
 ! D46   D(4,5,6,7)            -58.4136         estimate D2E/DX2                !
 ! D47   D(4,5,6,27)            62.8567         estimate D2E/DX2                !
 ! D48   D(4,5,6,28)           178.7713         estimate D2E/DX2                !
 ! D49   D(11,5,6,7)            53.2678         estimate D2E/DX2                !
 ! D50   D(11,5,6,27)          174.5381         estimate D2E/DX2                !
 ! D51   D(11,5,6,28)          -69.5473         estimate D2E/DX2                !
 ! D52   D(26,5,6,7)           176.2154         estimate D2E/DX2                !
 ! D53   D(26,5,6,27)          -62.5143         estimate D2E/DX2                !
 ! D54   D(26,5,6,28)           53.4003         estimate D2E/DX2                !
 ! D55   D(4,5,11,10)           28.059          estimate D2E/DX2                !
 ! D56   D(4,5,11,36)          -91.8392         estimate D2E/DX2                !
 ! D57   D(4,5,11,37)          146.9484         estimate D2E/DX2                !
 ! D58   D(6,5,11,10)          -86.9822         estimate D2E/DX2                !
 ! D59   D(6,5,11,36)          153.1196         estimate D2E/DX2                !
 ! D60   D(6,5,11,37)           31.9072         estimate D2E/DX2                !
 ! D61   D(26,5,11,10)         149.5849         estimate D2E/DX2                !
 ! D62   D(26,5,11,36)          29.6867         estimate D2E/DX2                !
 ! D63   D(26,5,11,37)         -91.5257         estimate D2E/DX2                !
 ! D64   D(5,6,7,8)             41.9012         estimate D2E/DX2                !
 ! D65   D(5,6,7,29)           162.5678         estimate D2E/DX2                !
 ! D66   D(5,6,7,30)           -82.0316         estimate D2E/DX2                !
 ! D67   D(27,6,7,8)           -79.6216         estimate D2E/DX2                !
 ! D68   D(27,6,7,29)           41.045          estimate D2E/DX2                !
 ! D69   D(27,6,7,30)          156.4456         estimate D2E/DX2                !
 ! D70   D(28,6,7,8)           164.8554         estimate D2E/DX2                !
 ! D71   D(28,6,7,29)          -74.478          estimate D2E/DX2                !
 ! D72   D(28,6,7,30)           40.9226         estimate D2E/DX2                !
 ! D73   D(6,7,8,9)            -42.2107         estimate D2E/DX2                !
 ! D74   D(6,7,8,31)          -162.7848         estimate D2E/DX2                !
 ! D75   D(6,7,8,32)            80.4447         estimate D2E/DX2                !
 ! D76   D(29,7,8,9)          -162.6719         estimate D2E/DX2                !
 ! D77   D(29,7,8,31)           76.754          estimate D2E/DX2                !
 ! D78   D(29,7,8,32)          -40.0164         estimate D2E/DX2                !
 ! D79   D(30,7,8,9)            80.781          estimate D2E/DX2                !
 ! D80   D(30,7,8,31)          -39.7931         estimate D2E/DX2                !
 ! D81   D(30,7,8,32)         -156.5636         estimate D2E/DX2                !
 ! D82   D(7,8,9,4)             58.8452         estimate D2E/DX2                !
 ! D83   D(7,8,9,10)           -51.1912         estimate D2E/DX2                !
 ! D84   D(7,8,9,33)          -176.8732         estimate D2E/DX2                !
 ! D85   D(31,8,9,4)           178.6981         estimate D2E/DX2                !
 ! D86   D(31,8,9,10)           68.6617         estimate D2E/DX2                !
 ! D87   D(31,8,9,33)          -57.0203         estimate D2E/DX2                !
 ! D88   D(32,8,9,4)           -64.4439         estimate D2E/DX2                !
 ! D89   D(32,8,9,10)         -174.4803         estimate D2E/DX2                !
 ! D90   D(32,8,9,33)           59.8376         estimate D2E/DX2                !
 ! D91   D(4,9,10,11)          -26.4491         estimate D2E/DX2                !
 ! D92   D(4,9,10,34)           91.8572         estimate D2E/DX2                !
 ! D93   D(4,9,10,35)         -149.3984         estimate D2E/DX2                !
 ! D94   D(8,9,10,11)           86.9024         estimate D2E/DX2                !
 ! D95   D(8,9,10,34)         -154.7913         estimate D2E/DX2                !
 ! D96   D(8,9,10,35)          -36.0469         estimate D2E/DX2                !
 ! D97   D(33,9,10,11)        -147.6155         estimate D2E/DX2                !
 ! D98   D(33,9,10,34)         -29.3093         estimate D2E/DX2                !
 ! D99   D(33,9,10,35)          89.4352         estimate D2E/DX2                !
 ! D100  D(9,10,11,5)           -0.9225         estimate D2E/DX2                !
 ! D101  D(9,10,11,36)         119.4456         estimate D2E/DX2                !
 ! D102  D(9,10,11,37)        -120.8445         estimate D2E/DX2                !
 ! D103  D(34,10,11,5)        -118.9031         estimate D2E/DX2                !
 ! D104  D(34,10,11,36)          1.465          estimate D2E/DX2                !
 ! D105  D(34,10,11,37)        121.1749         estimate D2E/DX2                !
 ! D106  D(35,10,11,5)         122.0843         estimate D2E/DX2                !
 ! D107  D(35,10,11,36)       -117.5475         estimate D2E/DX2                !
 ! D108  D(35,10,11,37)          2.1624         estimate D2E/DX2                !
 ! D109  D(2,12,13,14)        -142.9007         estimate D2E/DX2                !
 ! D110  D(2,12,13,38)         -23.3138         estimate D2E/DX2                !
 ! D111  D(2,12,13,39)          90.0265         estimate D2E/DX2                !
 ! D112  D(19,12,13,14)         83.2308         estimate D2E/DX2                !
 ! D113  D(19,12,13,38)       -157.1824         estimate D2E/DX2                !
 ! D114  D(19,12,13,39)        -43.8421         estimate D2E/DX2                !
 ! D115  D(52,12,13,14)        -28.8739         estimate D2E/DX2                !
 ! D116  D(52,12,13,38)         90.713          estimate D2E/DX2                !
 ! D117  D(52,12,13,39)       -155.9467         estimate D2E/DX2                !
 ! D118  D(2,12,19,18)         145.4274         estimate D2E/DX2                !
 ! D119  D(2,12,19,50)          27.5852         estimate D2E/DX2                !
 ! D120  D(2,12,19,51)         -89.0171         estimate D2E/DX2                !
 ! D121  D(13,12,19,18)        -81.6615         estimate D2E/DX2                !
 ! D122  D(13,12,19,50)        160.4964         estimate D2E/DX2                !
 ! D123  D(13,12,19,51)         43.894          estimate D2E/DX2                !
 ! D124  D(52,12,19,18)         32.4074         estimate D2E/DX2                !
 ! D125  D(52,12,19,50)        -85.4347         estimate D2E/DX2                !
 ! D126  D(52,12,19,51)        157.9629         estimate D2E/DX2                !
 ! D127  D(12,13,14,15)       -104.4946         estimate D2E/DX2                !
 ! D128  D(12,13,14,40)        135.0575         estimate D2E/DX2                !
 ! D129  D(12,13,14,41)         21.3316         estimate D2E/DX2                !
 ! D130  D(38,13,14,15)        131.2273         estimate D2E/DX2                !
 ! D131  D(38,13,14,40)         10.7794         estimate D2E/DX2                !
 ! D132  D(38,13,14,41)       -102.9466         estimate D2E/DX2                !
 ! D133  D(39,13,14,15)         22.3903         estimate D2E/DX2                !
 ! D134  D(39,13,14,40)        -98.0575         estimate D2E/DX2                !
 ! D135  D(39,13,14,41)        148.2165         estimate D2E/DX2                !
 ! D136  D(13,14,15,16)         37.4343         estimate D2E/DX2                !
 ! D137  D(13,14,15,42)        164.1256         estimate D2E/DX2                !
 ! D138  D(13,14,15,43)        -83.5368         estimate D2E/DX2                !
 ! D139  D(40,14,15,16)        159.3442         estimate D2E/DX2                !
 ! D140  D(40,14,15,42)        -73.9645         estimate D2E/DX2                !
 ! D141  D(40,14,15,43)         38.3732         estimate D2E/DX2                !
 ! D142  D(41,14,15,16)        -88.7116         estimate D2E/DX2                !
 ! D143  D(41,14,15,42)         37.9797         estimate D2E/DX2                !
 ! D144  D(41,14,15,43)        150.3174         estimate D2E/DX2                !
 ! D145  D(14,15,16,17)         65.0891         estimate D2E/DX2                !
 ! D146  D(14,15,16,44)       -177.0412         estimate D2E/DX2                !
 ! D147  D(14,15,16,45)        -62.5468         estimate D2E/DX2                !
 ! D148  D(42,15,16,17)        -61.7359         estimate D2E/DX2                !
 ! D149  D(42,15,16,44)         56.1338         estimate D2E/DX2                !
 ! D150  D(42,15,16,45)        170.6282         estimate D2E/DX2                !
 ! D151  D(43,15,16,17)       -173.5895         estimate D2E/DX2                !
 ! D152  D(43,15,16,44)        -55.7198         estimate D2E/DX2                !
 ! D153  D(43,15,16,45)         58.7747         estimate D2E/DX2                !
 ! D154  D(15,16,17,18)        -63.3698         estimate D2E/DX2                !
 ! D155  D(15,16,17,46)         60.5315         estimate D2E/DX2                !
 ! D156  D(15,16,17,47)        176.1601         estimate D2E/DX2                !
 ! D157  D(44,16,17,18)        178.0186         estimate D2E/DX2                !
 ! D158  D(44,16,17,46)        -58.0802         estimate D2E/DX2                !
 ! D159  D(44,16,17,47)         57.5485         estimate D2E/DX2                !
 ! D160  D(45,16,17,18)         65.0773         estimate D2E/DX2                !
 ! D161  D(45,16,17,46)       -171.0215         estimate D2E/DX2                !
 ! D162  D(45,16,17,47)        -55.3928         estimate D2E/DX2                !
 ! D163  D(16,17,18,19)        -41.3027         estimate D2E/DX2                !
 ! D164  D(16,17,18,48)       -162.2076         estimate D2E/DX2                !
 ! D165  D(16,17,18,49)         85.765          estimate D2E/DX2                !
 ! D166  D(46,17,18,19)       -165.5596         estimate D2E/DX2                !
 ! D167  D(46,17,18,48)         73.5354         estimate D2E/DX2                !
 ! D168  D(46,17,18,49)        -38.492          estimate D2E/DX2                !
 ! D169  D(47,17,18,19)         78.7578         estimate D2E/DX2                !
 ! D170  D(47,17,18,48)        -42.1471         estimate D2E/DX2                !
 ! D171  D(47,17,18,49)       -154.1745         estimate D2E/DX2                !
 ! D172  D(17,18,19,12)        106.651          estimate D2E/DX2                !
 ! D173  D(17,18,19,50)       -130.6096         estimate D2E/DX2                !
 ! D174  D(17,18,19,51)        -19.0203         estimate D2E/DX2                !
 ! D175  D(48,18,19,12)       -132.6159         estimate D2E/DX2                !
 ! D176  D(48,18,19,50)         -9.8764         estimate D2E/DX2                !
 ! D177  D(48,18,19,51)        101.7129         estimate D2E/DX2                !
 ! D178  D(49,18,19,12)        -20.7713         estimate D2E/DX2                !
 ! D179  D(49,18,19,50)        101.9681         estimate D2E/DX2                !
 ! D180  D(49,18,19,51)       -146.4426         estimate D2E/DX2                !
 --------------------------------------------------------------------------------
 Trust Radius=3.00D-01 FncErr=1.00D-07 GrdErr=1.00D-06 EigMax=2.50D+02 EigMin=1.00D-04
 Number of steps in this run=    312 maximum allowed number of steps=    312.
 GradGradGradGradGradGradGradGradGradGradGradGradGradGradGradGradGradGrad

 Leave Link  103 at Fri Jan 24 16:52:55 2025, MaxMem=  3221225472 cpu:               0.6 elap:               0.0
 (Enter /software/gaussian/G16-C.01/avx2/g16/l202.exe)
 Stoichiometry    C17H33BN(1+)
 Framework group  C1[X(C17H33BN)]
 Deg. of freedom   150
 Full point group                 C1      NOp   1
 Largest Abelian subgroup         C1      NOp   1
 Largest concise Abelian subgroup C1      NOp   1
                         Standard orientation:                         
 ---------------------------------------------------------------------
 Center     Atomic      Atomic             Coordinates (Angstroms)
 Number     Number       Type             X           Y           Z
 ---------------------------------------------------------------------
      1          6           0        0.228971    1.757751    1.879474
      2          6           0        0.274186    1.290502    0.405612
      3          6           0        0.555399    2.519097   -0.500574
      4          5           0        1.535022    0.309269    0.146582
      5          6           0        2.588680   -0.257554    1.141275
      6          6           0        3.960440    0.290814    0.730933
      7          6           0        4.347977   -0.087364   -0.728787
      8          6           0        3.171194    0.041710   -1.723566
      9          6           0        1.834659   -0.504608   -1.148657
     10          6           0        2.010526   -1.933527   -0.584255
     11          6           0        2.483687   -1.773870    0.902086
     12          7           0       -1.022481    0.595161    0.032036
     13          6           0       -1.297229   -0.629586    0.815166
     14          6           0       -1.950843   -1.733381   -0.019395
     15          6           0       -3.459380   -1.948602    0.212202
     16          6           0       -4.338199   -0.728527    0.458808
     17          6           0       -4.446762    0.249097   -0.740532
     18          6           0       -3.161009    0.944178   -1.198047
     19          6           0       -2.210672    1.455358   -0.062402
     20          1           0        1.155262    2.301207    2.143379
     21          1           0        0.113305    0.921878    2.577255
     22          1           0       -0.642141    2.442908    2.056473
     23          1           0        0.312210    2.266891   -1.555912
     24          1           0        1.594975    2.828846   -0.434722
     25          1           0       -0.047932    3.434287   -0.197255
     26          1           0        2.372029   -0.023608    2.223790
     27          1           0        3.957760    1.401289    0.827339
     28          1           0        4.752047   -0.079703    1.442971
     29          1           0        5.171632    0.586946   -1.059384
     30          1           0        4.761884   -1.112497   -0.739876
     31          1           0        3.433215   -0.527615   -2.634854
     32          1           0        3.034180    1.103945   -2.028631
     33          1           0        1.023674   -0.453691   -1.892527
     34          1           0        1.024662   -2.461254   -0.609709
     35          1           0        2.722445   -2.534964   -1.184950
     36          1           0        1.755064   -2.239114    1.593179
     37          1           0        3.466554   -2.270926    1.036654
     38          1           0       -0.369768   -1.100660    1.255667
     39          1           0       -1.888522   -0.401153    1.751247
     40          1           0       -1.454338   -2.703417    0.200144
     41          1           0       -1.752285   -1.570928   -1.109245
     42          1           0       -3.888209   -2.553828   -0.626525
     43          1           0       -3.570795   -2.615215    1.110248
     44          1           0       -5.364376   -1.092041    0.653702
     45          1           0       -4.051584   -0.180055    1.391479
     46          1           0       -4.881315   -0.278890   -1.598383
     47          1           0       -5.166645    1.042020   -0.441930
     48          1           0       -3.456399    1.823065   -1.818509
     49          1           0       -2.606727    0.318698   -1.903905
     50          1           0       -1.979721    2.484476   -0.322764
     51          1           0       -2.737729    1.550008    0.909010
     52          1           0       -0.859896    0.271701   -1.006684
 ---------------------------------------------------------------------
 Rotational constants (GHZ):           0.7147819           0.2265394           0.2066000
 Leave Link  202 at Fri Jan 24 16:52:55 2025, MaxMem=  3221225472 cpu:               0.1 elap:               0.0
 (Enter /software/gaussian/G16-C.01/avx2/g16/l301.exe)
 Standard basis: def2SVP (5D, 7F)
 Ernie: Thresh=  0.10000D-02 Tol=  0.10000D-05 Strict=F.
 There are   450 symmetry adapted cartesian basis functions of A   symmetry.
 There are   431 symmetry adapted basis functions of A   symmetry.
   431 basis functions,   706 primitive gaussians,   450 cartesian basis functions
    73 alpha electrons       73 beta electrons
       nuclear repulsion energy      1613.3349228695 Hartrees.
 IExCor= 1009 DFT=T Ex+Corr=PBE1PBE ExCW=0 ScaHFX=  0.250000
 ScaDFX=  0.750000  0.750000  1.000000  1.000000 ScalE2=  1.000000  1.000000
 IRadAn=      5 IRanWt=     -1 IRanGd=            0 ICorTp=0 IEmpDi=141
 NAtoms=   52 NActive=   52 NUniq=   52 SFac= 1.00D+00 NAtFMM=   60 NAOKFM=F Big=F
 Integral buffers will be    131072 words long.
 Raffenetti 2 integral format.
 Two-electron integral symmetry is turned on.
 R6Disp:  Grimme-D3(BJ) Dispersion energy=       -0.0604084996 Hartrees.
 Nuclear repulsion after empirical dispersion term =     1613.2745143700 Hartrees.
 Leave Link  301 at Fri Jan 24 16:52:55 2025, MaxMem=  3221225472 cpu:               1.6 elap:               0.1
 (Enter /software/gaussian/G16-C.01/avx2/g16/l302.exe)
 NPDir=0 NMtPBC=     1 NCelOv=     1 NCel=       1 NClECP=     1 NCelD=      1
         NCelK=      1 NCelE2=     1 NClLst=     1 CellRange=     0.0.
 One-electron integrals computed using PRISM.
 One-electron integral symmetry used in STVInt
   1 Symmetry operations used in ECPInt.
 ECPInt:  NShTT=   22791 NPrTT=   77767 LenC2=   21358 LenP2D=   53236.
 LDataN:  DoStor=T MaxTD1= 4 Len=   56
 NBasis=   431 RedAO= T EigKep=  5.35D-04  NBF=   431
 NBsUse=   431 1.00D-06 EigRej= -1.00D+00 NBFU=   431
 Precomputing XC quadrature grid using
 IXCGrd= 4 IRadAn=           5 IRanWt=          -1 IRanGd=           0 AccXCQ= 0.00D+00.
 Generated NRdTot=       0 NPtTot=           0 NUsed=           0 NTot=          32
 NSgBfM=   449   449   449   449   449 MxSgAt=    52 MxSgA2=    52.
 Leave Link  302 at Fri Jan 24 16:52:55 2025, MaxMem=  3221225472 cpu:              14.7 elap:               0.6
 (Enter /software/gaussian/G16-C.01/avx2/g16/l303.exe)
 DipDrv:  MaxL=1.
 Leave Link  303 at Fri Jan 24 16:52:55 2025, MaxMem=  3221225472 cpu:               2.0 elap:               0.1
 (Enter /software/gaussian/G16-C.01/avx2/g16/l401.exe)
 ExpMin= 8.36D-02 ExpMax= 1.71D+03 ExpMxC= 2.58D+02 IAcc=3 IRadAn=         5 AccDes= 0.00D+00
 Harris functional with IExCor= 1009 and IRadAn=       5 diagonalized for initial guess.
 HarFok:  IExCor= 1009 AccDes= 0.00D+00 IRadAn=         5 IDoV= 1 UseB2=F ITyADJ=14
 ICtDFT=  3500011 ScaDFX=  1.000000  1.000000  1.000000  1.000000
 FoFCou: FMM=F IPFlag=           0 FMFlag=      100000 FMFlg1=           0
         NFxFlg=           0 DoJE=T BraDBF=F KetDBF=T FulRan=T
         wScrn=  0.000000 ICntrl=       500 IOpCl=  0 I1Cent=   200000004 NGrid=           0
         NMat0=    1 NMatS0=      1 NMatT0=    0 NMatD0=    1 NMtDS0=    0 NMtDT0=    0
 Petite list used in FoFCou.
 Harris En= -745.940551975697    
 JPrj=0 DoOrth=F DoCkMO=F.
 Leave Link  401 at Fri Jan 24 16:52:57 2025, MaxMem=  3221225472 cpu:              41.0 elap:               1.7
 (Enter /software/gaussian/G16-C.01/avx2/g16/l502.exe)
 Integral symmetry usage will be decided dynamically.
 Closed shell SCF:
 Using DIIS extrapolation, IDIIS=  1040.
 NGot=  3221225472 LenX=  3220803354 LenY=  3220600404
 Requested convergence on RMS density matrix=1.00D-08 within 128 cycles.
 Requested convergence on MAX density matrix=1.00D-06.
 Requested convergence on             energy=1.00D-06.
 No special actions if energy rises.
 Fock matrices will be formed incrementally for  20 cycles.
 Integral accuracy reduced to 1.0D-05 until final iterations.

 Cycle   1  Pass 0  IDiag  1:
 FoFJK:  IHMeth= 1 ICntrl=       0 DoSepK=F KAlg= 0 I1Cent=           0 FoldK=F
 IRaf= 880000000 NMat=       1 IRICut=       1 DoRegI=T DoRafI=F ISym2E= 0 IDoP0=0 IntGTp=1.
 FoFCou: FMM=F IPFlag=           0 FMFlag=      100000 FMFlg1=           0
         NFxFlg=           0 DoJE=F BraDBF=F KetDBF=F FulRan=T
         wScrn=  0.000000 ICntrl=         0 IOpCl=  0 I1Cent=           0 NGrid=           0
         NMat0=    1 NMatS0=      1 NMatT0=    0 NMatD0=    1 NMtDS0=    0 NMtDT0=    0
 Symmetry not used in FoFCou.
 E= -745.175083220123    
 DIIS: error= 1.96D-02 at cycle   1 NSaved=   1.
 NSaved= 1 IEnMin= 1 EnMin= -745.175083220123     IErMin= 1 ErrMin= 1.96D-02
 ErrMax= 1.96D-02  0.00D+00 EMaxC= 1.00D-01 BMatC= 4.45D-01 BMatP= 4.45D-01
 IDIUse=3 WtCom= 8.04D-01 WtEn= 1.96D-01
 Coeff-Com:  0.100D+01
 Coeff-En:   0.100D+01
 Coeff:      0.100D+01
 Gap=     0.211 Goal=   None    Shift=    0.000
 GapD=    0.211 DampG=1.000 DampE=0.500 DampFc=0.5000 IDamp=-1.
 Damping current iteration by 5.00D-01
 RMSDP=4.18D-03 MaxDP=1.37D-01              OVMax= 1.69D-01

 Cycle   2  Pass 0  IDiag  1:
 RMSU=  2.04D-03    CP:  9.70D-01
 E= -745.381256587808     Delta-E=       -0.206173367685 Rises=F Damp=T
 DIIS: error= 5.31D-03 at cycle   2 NSaved=   2.
 NSaved= 2 IEnMin= 2 EnMin= -745.381256587808     IErMin= 2 ErrMin= 5.31D-03
 ErrMax= 5.31D-03  0.00D+00 EMaxC= 1.00D-01 BMatC= 3.20D-02 BMatP= 4.45D-01
 IDIUse=3 WtCom= 9.47D-01 WtEn= 5.31D-02
 Coeff-Com:  0.100D+00 0.900D+00
 Coeff-En:   0.162D+00 0.838D+00
 Coeff:      0.104D+00 0.896D+00
 Gap=     0.291 Goal=   None    Shift=    0.000
 RMSDP=1.43D-03 MaxDP=5.32D-02 DE=-2.06D-01 OVMax= 1.08D-01

 Cycle   3  Pass 0  IDiag  1:
 RMSU=  1.42D-03    CP:  9.58D-01  1.00D+00
 E= -745.659542180678     Delta-E=       -0.278285592871 Rises=F Damp=F
 DIIS: error= 3.94D-03 at cycle   3 NSaved=   3.
 NSaved= 3 IEnMin= 3 EnMin= -745.659542180678     IErMin= 3 ErrMin= 3.94D-03
 ErrMax= 3.94D-03  0.00D+00 EMaxC= 1.00D-01 BMatC= 1.11D-02 BMatP= 3.20D-02
 IDIUse=3 WtCom= 9.61D-01 WtEn= 3.94D-02
 Coeff-Com: -0.241D-02 0.351D+00 0.652D+00
 Coeff-En:   0.000D+00 0.000D+00 0.100D+01
 Coeff:     -0.231D-02 0.337D+00 0.665D+00
 Gap=     0.229 Goal=   None    Shift=    0.000
 RMSDP=4.68D-04 MaxDP=1.81D-02 DE=-2.78D-01 OVMax= 1.63D-02

 Cycle   4  Pass 0  IDiag  1:
 RMSU=  3.40D-04    CP:  9.59D-01  1.04D+00  7.81D-01
 E= -745.668163173697     Delta-E=       -0.008620993019 Rises=F Damp=F
 DIIS: error= 1.20D-03 at cycle   4 NSaved=   4.
 NSaved= 4 IEnMin= 4 EnMin= -745.668163173697     IErMin= 4 ErrMin= 1.20D-03
 ErrMax= 1.20D-03  0.00D+00 EMaxC= 1.00D-01 BMatC= 1.72D-03 BMatP= 1.11D-02
 IDIUse=3 WtCom= 9.88D-01 WtEn= 1.20D-02
 Coeff-Com: -0.838D-02 0.819D-01 0.314D+00 0.612D+00
 Coeff-En:   0.000D+00 0.000D+00 0.802D-01 0.920D+00
 Coeff:     -0.828D-02 0.809D-01 0.312D+00 0.616D+00
 Gap=     0.233 Goal=   None    Shift=    0.000
 RMSDP=1.40D-04 MaxDP=6.30D-03 DE=-8.62D-03 OVMax= 5.89D-03

 Cycle   5  Pass 0  IDiag  1:
 RMSU=  9.80D-05    CP:  9.58D-01  1.03D+00  8.05D-01  7.43D-01
 E= -745.669753526856     Delta-E=       -0.001590353158 Rises=F Damp=F
 DIIS: error= 3.45D-04 at cycle   5 NSaved=   5.
 NSaved= 5 IEnMin= 5 EnMin= -745.669753526856     IErMin= 5 ErrMin= 3.45D-04
 ErrMax= 3.45D-04  0.00D+00 EMaxC= 1.00D-01 BMatC= 1.37D-04 BMatP= 1.72D-03
 IDIUse=3 WtCom= 9.97D-01 WtEn= 3.45D-03
 Coeff-Com: -0.365D-02 0.735D-02 0.812D-01 0.287D+00 0.628D+00
 Coeff-En:   0.000D+00 0.000D+00 0.000D+00 0.000D+00 0.100D+01
 Coeff:     -0.364D-02 0.732D-02 0.809D-01 0.286D+00 0.629D+00
 Gap=     0.232 Goal=   None    Shift=    0.000
 RMSDP=4.30D-05 MaxDP=1.57D-03 DE=-1.59D-03 OVMax= 1.42D-03

 Cycle   6  Pass 0  IDiag  1:
 RMSU=  1.77D-05    CP:  9.58D-01  1.03D+00  8.16D-01  7.58D-01  6.46D-01
 E= -745.669883955400     Delta-E=       -0.000130428545 Rises=F Damp=F
 DIIS: error= 7.06D-05 at cycle   6 NSaved=   6.
 NSaved= 6 IEnMin= 6 EnMin= -745.669883955400     IErMin= 6 ErrMin= 7.06D-05
 ErrMax= 7.06D-05  0.00D+00 EMaxC= 1.00D-01 BMatC= 5.58D-06 BMatP= 1.37D-04
 IDIUse=1 WtCom= 1.00D+00 WtEn= 0.00D+00
 Coeff-Com: -0.142D-02 0.547D-03 0.265D-01 0.114D+00 0.297D+00 0.564D+00
 Coeff:     -0.142D-02 0.547D-03 0.265D-01 0.114D+00 0.297D+00 0.564D+00
 Gap=     0.232 Goal=   None    Shift=    0.000
 RMSDP=7.45D-06 MaxDP=4.23D-04 DE=-1.30D-04 OVMax= 2.85D-04

 Initial convergence to 1.0D-05 achieved.  Increase integral accuracy.
 Cycle   7  Pass 1  IDiag  1:
 E= -745.669940927776     Delta-E=       -0.000056972376 Rises=F Damp=F
 DIIS: error= 8.52D-05 at cycle   1 NSaved=   1.
 NSaved= 1 IEnMin= 1 EnMin= -745.669940927776     IErMin= 1 ErrMin= 8.52D-05
 ErrMax= 8.52D-05  0.00D+00 EMaxC= 1.00D-01 BMatC= 2.51D-06 BMatP= 2.51D-06
 IDIUse=1 WtCom= 1.00D+00 WtEn= 0.00D+00
 Coeff-Com:  0.100D+01
 Coeff:      0.100D+01
 Gap=     0.232 Goal=   None    Shift=    0.000
 RMSDP=7.45D-06 MaxDP=4.23D-04 DE=-5.70D-05 OVMax= 2.54D-04

 Cycle   8  Pass 1  IDiag  1:
 RMSU=  4.33D-05    CP:  1.00D+00
 E= -745.669942839030     Delta-E=       -0.000001911254 Rises=F Damp=F
 DIIS: error= 3.00D-05 at cycle   2 NSaved=   2.
 NSaved= 2 IEnMin= 2 EnMin= -745.669942839030     IErMin= 2 ErrMin= 3.00D-05
 ErrMax= 3.00D-05  0.00D+00 EMaxC= 1.00D-01 BMatC= 8.16D-07 BMatP= 2.51D-06
 IDIUse=1 WtCom= 1.00D+00 WtEn= 0.00D+00
 Coeff-Com:  0.308D+00 0.692D+00
 Coeff:      0.308D+00 0.692D+00
 Gap=     0.232 Goal=   None    Shift=    0.000
 RMSDP=3.58D-06 MaxDP=2.62D-04 DE=-1.91D-06 OVMax= 1.68D-04

 Cycle   9  Pass 1  IDiag  1:
 RMSU=  3.56D-06    CP:  1.00D+00  1.01D+00
 E= -745.669943228127     Delta-E=       -0.000000389097 Rises=F Damp=F
 DIIS: error= 2.22D-05 at cycle   3 NSaved=   3.
 NSaved= 3 IEnMin= 3 EnMin= -745.669943228127     IErMin= 3 ErrMin= 2.22D-05
 ErrMax= 2.22D-05  0.00D+00 EMaxC= 1.00D-01 BMatC= 4.07D-07 BMatP= 8.16D-07
 IDIUse=1 WtCom= 1.00D+00 WtEn= 0.00D+00
 Coeff-Com: -0.147D-02 0.413D+00 0.588D+00
 Coeff:     -0.147D-02 0.413D+00 0.588D+00
 Gap=     0.232 Goal=   None    Shift=    0.000
 RMSDP=1.55D-06 MaxDP=1.20D-04 DE=-3.89D-07 OVMax= 7.42D-05

 Cycle  10  Pass 1  IDiag  1:
 RMSU=  4.70D-07    CP:  1.00D+00  1.01D+00  6.03D-01
 E= -745.669943593281     Delta-E=       -0.000000365154 Rises=F Damp=F
 DIIS: error= 1.62D-06 at cycle   4 NSaved=   4.
 NSaved= 4 IEnMin= 4 EnMin= -745.669943593281     IErMin= 4 ErrMin= 1.62D-06
 ErrMax= 1.62D-06  0.00D+00 EMaxC= 1.00D-01 BMatC= 3.99D-09 BMatP= 4.07D-07
 IDIUse=1 WtCom= 1.00D+00 WtEn= 0.00D+00
 Coeff-Com: -0.375D-02 0.202D+00 0.297D+00 0.504D+00
 Coeff:     -0.375D-02 0.202D+00 0.297D+00 0.504D+00
 Gap=     0.232 Goal=   None    Shift=    0.000
 RMSDP=2.02D-07 MaxDP=9.61D-06 DE=-3.65D-07 OVMax= 8.97D-06

 Cycle  11  Pass 1  IDiag  1:
 RMSU=  1.11D-07    CP:  1.00D+00  1.01D+00  6.01D-01  6.43D-01
 E= -745.669943597166     Delta-E=       -0.000000003884 Rises=F Damp=F
 DIIS: error= 3.29D-07 at cycle   5 NSaved=   5.
 NSaved= 5 IEnMin= 5 EnMin= -745.669943597166     IErMin= 5 ErrMin= 3.29D-07
 ErrMax= 3.29D-07  0.00D+00 EMaxC= 1.00D-01 BMatC= 1.22D-10 BMatP= 3.99D-09
 IDIUse=1 WtCom= 1.00D+00 WtEn= 0.00D+00
 Coeff-Com: -0.173D-02 0.798D-01 0.118D+00 0.238D+00 0.566D+00
 Coeff:     -0.173D-02 0.798D-01 0.118D+00 0.238D+00 0.566D+00
 Gap=     0.232 Goal=   None    Shift=    0.000
 RMSDP=4.29D-08 MaxDP=1.41D-06 DE=-3.88D-09 OVMax= 1.68D-06

 Cycle  12  Pass 1  IDiag  1:
 RMSU=  3.73D-08    CP:  1.00D+00  1.01D+00  6.03D-01  6.31D-01  8.33D-01
 E= -745.669943597285     Delta-E=       -0.000000000119 Rises=F Damp=F
 DIIS: error= 7.61D-08 at cycle   6 NSaved=   6.
 NSaved= 6 IEnMin= 6 EnMin= -745.669943597285     IErMin= 6 ErrMin= 7.61D-08
 ErrMax= 7.61D-08  0.00D+00 EMaxC= 1.00D-01 BMatC= 6.00D-12 BMatP= 1.22D-10
 IDIUse=1 WtCom= 1.00D+00 WtEn= 0.00D+00
 Coeff-Com: -0.342D-03 0.135D-01 0.202D-01 0.495D-01 0.216D+00 0.701D+00
 Coeff:     -0.342D-03 0.135D-01 0.202D-01 0.495D-01 0.216D+00 0.701D+00
 Gap=     0.232 Goal=   None    Shift=    0.000
 RMSDP=1.07D-08 MaxDP=3.90D-07 DE=-1.19D-10 OVMax= 4.90D-07

 Cycle  13  Pass 1  IDiag  1:
 RMSU=  7.42D-09    CP:  1.00D+00  1.02D+00  6.03D-01  6.37D-01  8.83D-01
                    CP:  8.92D-01
 E= -745.669943597275     Delta-E=        0.000000000010 Rises=F Damp=F
 DIIS: error= 3.19D-08 at cycle   7 NSaved=   7.
 NSaved= 7 IEnMin= 6 EnMin= -745.669943597285     IErMin= 7 ErrMin= 3.19D-08
 ErrMax= 3.19D-08  0.00D+00 EMaxC= 1.00D-01 BMatC= 1.09D-12 BMatP= 6.00D-12
 IDIUse=1 WtCom= 1.00D+00 WtEn= 0.00D+00
 Coeff-Com:  0.388D-04-0.291D-02-0.418D-02-0.422D-02 0.383D-01 0.349D+00
 Coeff-Com:  0.624D+00
 Coeff:      0.388D-04-0.291D-02-0.418D-02-0.422D-02 0.383D-01 0.349D+00
 Coeff:      0.624D+00
 Gap=     0.232 Goal=   None    Shift=    0.000
 RMSDP=3.14D-09 MaxDP=1.39D-07 DE= 1.00D-11 OVMax= 1.68D-07

 SCF Done:  E(RPBE1PBE) =  -745.669943597     A.U. after   13 cycles
            NFock= 13  Conv=0.31D-08     -V/T= 2.0130
 KE= 7.360816185992D+02 PE=-4.928004216615D+03 EE= 1.832978140049D+03
 Leave Link  502 at Fri Jan 24 16:53:48 2025, MaxMem=  3221225472 cpu:            1228.2 elap:              51.2
 (Enter /software/gaussian/G16-C.01/avx2/g16/l601.exe)
 Copying SCF densities to generalized density rwf, IOpCl= 0 IROHF=0.

 **********************************************************************

            Population analysis using the SCF Density.

 **********************************************************************

 Orbital symmetries:
       Occupied  (A) (A) (A) (A) (A) (A) (A) (A) (A) (A) (A) (A)
                 (A) (A) (A) (A) (A) (A) (A) (A) (A) (A) (A) (A)
                 (A) (A) (A) (A) (A) (A) (A) (A) (A) (A) (A) (A)
                 (A) (A) (A) (A) (A) (A) (A) (A) (A) (A) (A) (A)
                 (A) (A) (A) (A) (A) (A) (A) (A) (A) (A) (A) (A)
                 (A) (A) (A) (A) (A) (A) (A) (A) (A) (A) (A) (A)
                 (A)
       Virtual   (A) (A) (A) (A) (A) (A) (A) (A) (A) (A) (A) (A)
                 (A) (A) (A) (A) (A) (A) (A) (A) (A) (A) (A) (A)
                 (A) (A) (A) (A) (A) (A) (A) (A) (A) (A) (A) (A)
                 (A) (A) (A) (A) (A) (A) (A) (A) (A) (A) (A) (A)
                 (A) (A) (A) (A) (A) (A) (A) (A) (A) (A) (A) (A)
                 (A) (A) (A) (A) (A) (A) (A) (A) (A) (A) (A) (A)
                 (A) (A) (A) (A) (A) (A) (A) (A) (A) (A) (A) (A)
                 (A) (A) (A) (A) (A) (A) (A) (A) (A) (A) (A) (A)
                 (A) (A) (A) (A) (A) (A) (A) (A) (A) (A) (A) (A)
                 (A) (A) (A) (A) (A) (A) (A) (A) (A) (A) (A) (A)
                 (A) (A) (A) (A) (A) (A) (A) (A) (A) (A) (A) (A)
                 (A) (A) (A) (A) (A) (A) (A) (A) (A) (A) (A) (A)
                 (A) (A) (A) (A) (A) (A) (A) (A) (A) (A) (A) (A)
                 (A) (A) (A) (A) (A) (A) (A) (A) (A) (A) (A) (A)
                 (A) (A) (A) (A) (A) (A) (A) (A) (A) (A) (A) (A)
                 (A) (A) (A) (A) (A) (A) (A) (A) (A) (A) (A) (A)
                 (A) (A) (A) (A) (A) (A) (A) (A) (A) (A) (A) (A)
                 (A) (A) (A) (A) (A) (A) (A) (A) (A) (A) (A) (A)
                 (A) (A) (A) (A) (A) (A) (A) (A) (A) (A) (A) (A)
                 (A) (A) (A) (A) (A) (A) (A) (A) (A) (A) (A) (A)
                 (A) (A) (A) (A) (A) (A) (A) (A) (A) (A) (A) (A)
                 (A) (A) (A) (A) (A) (A) (A) (A) (A) (A) (A) (A)
                 (A) (A) (A) (A) (A) (A) (A) (A) (A) (A) (A) (A)
                 (A) (A) (A) (A) (A) (A) (A) (A) (A) (A) (A) (A)
                 (A) (A) (A) (A) (A) (A) (A) (A) (A) (A) (A) (A)
                 (A) (A) (A) (A) (A) (A) (A) (A) (A) (A) (A) (A)
                 (A) (A) (A) (A) (A) (A) (A) (A) (A) (A) (A) (A)
                 (A) (A) (A) (A) (A) (A) (A) (A) (A) (A) (A) (A)
                 (A) (A) (A) (A) (A) (A) (A) (A) (A) (A) (A) (A)
                 (A) (A) (A) (A) (A) (A) (A) (A) (A) (A)
 The electronic state is 1-A.
 Alpha  occ. eigenvalues --  -14.67013 -10.43912 -10.43032 -10.42456 -10.38414
 Alpha  occ. eigenvalues --  -10.38323 -10.38141 -10.36969 -10.35825 -10.35570
 Alpha  occ. eigenvalues --  -10.35479 -10.34492 -10.34386 -10.34110 -10.34009
 Alpha  occ. eigenvalues --  -10.33352 -10.33285 -10.32574  -6.90625  -1.18159
 Alpha  occ. eigenvalues --   -0.97556  -0.96716  -0.95440  -0.93880  -0.87889
 Alpha  occ. eigenvalues --   -0.87311  -0.86809  -0.86038  -0.84405  -0.81010
 Alpha  occ. eigenvalues --   -0.77869  -0.76099  -0.75569  -0.74357  -0.71810
 Alpha  occ. eigenvalues --   -0.68418  -0.67196  -0.66993  -0.66036  -0.65220
 Alpha  occ. eigenvalues --   -0.62123  -0.61678  -0.61298  -0.60426  -0.59439
 Alpha  occ. eigenvalues --   -0.58404  -0.56904  -0.56261  -0.55520  -0.54611
 Alpha  occ. eigenvalues --   -0.54461  -0.54087  -0.53833  -0.52971  -0.52368
 Alpha  occ. eigenvalues --   -0.51925  -0.51080  -0.50793  -0.50631  -0.50003
 Alpha  occ. eigenvalues --   -0.49596  -0.48701  -0.48495  -0.47208  -0.46035
 Alpha  occ. eigenvalues --   -0.45685  -0.44428  -0.43920  -0.43605  -0.43131
 Alpha  occ. eigenvalues --   -0.42577  -0.41176  -0.39210
 Alpha virt. eigenvalues --   -0.16002  -0.11815  -0.08484  -0.07936  -0.05941
 Alpha virt. eigenvalues --   -0.05602  -0.03735  -0.03350  -0.02785  -0.02535
 Alpha virt. eigenvalues --   -0.02140  -0.01834  -0.01252  -0.01033   0.00047
 Alpha virt. eigenvalues --    0.00563   0.00647   0.01410   0.01686   0.02262
 Alpha virt. eigenvalues --    0.02902   0.03696   0.03811   0.04373   0.04526
 Alpha virt. eigenvalues --    0.04979   0.05444   0.05720   0.06166   0.06531
 Alpha virt. eigenvalues --    0.06847   0.07060   0.07462   0.08040   0.08460
 Alpha virt. eigenvalues --    0.08923   0.09483   0.09938   0.10176   0.10635
 Alpha virt. eigenvalues --    0.11166   0.11648   0.11829   0.12447   0.13939
 Alpha virt. eigenvalues --    0.14116   0.14848   0.15415   0.16317   0.17378
 Alpha virt. eigenvalues --    0.18961   0.20329   0.21277   0.21550   0.24381
 Alpha virt. eigenvalues --    0.24990   0.26605   0.26976   0.29578   0.31366
 Alpha virt. eigenvalues --    0.31728   0.33034   0.33191   0.34302   0.34479
 Alpha virt. eigenvalues --    0.35068   0.35785   0.35896   0.37742   0.38852
 Alpha virt. eigenvalues --    0.39568   0.39872   0.40892   0.41518   0.43387
 Alpha virt. eigenvalues --    0.44309   0.44577   0.46011   0.47372   0.47552
 Alpha virt. eigenvalues --    0.48278   0.48692   0.49502   0.50040   0.50248
 Alpha virt. eigenvalues --    0.50450   0.50904   0.51117   0.51530   0.52155
 Alpha virt. eigenvalues --    0.52473   0.52727   0.53137   0.53401   0.53677
 Alpha virt. eigenvalues --    0.54018   0.54563   0.54915   0.55187   0.55736
 Alpha virt. eigenvalues --    0.55800   0.56467   0.56663   0.57054   0.57423
 Alpha virt. eigenvalues --    0.57569   0.58221   0.58544   0.58917   0.59081
 Alpha virt. eigenvalues --    0.59372   0.59804   0.60164   0.60435   0.60558
 Alpha virt. eigenvalues --    0.61417   0.61556   0.62076   0.62192   0.62740
 Alpha virt. eigenvalues --    0.62796   0.63537   0.63724   0.64248   0.64847
 Alpha virt. eigenvalues --    0.64954   0.65962   0.66462   0.66936   0.67512
 Alpha virt. eigenvalues --    0.68211   0.68581   0.69164   0.70803   0.71947
 Alpha virt. eigenvalues --    0.72928   0.74940   0.75602   0.77748   0.78028
 Alpha virt. eigenvalues --    0.80198   0.81493   0.82463   0.85770   0.86450
 Alpha virt. eigenvalues --    0.86784   0.90108   0.90481   0.93096   0.94646
 Alpha virt. eigenvalues --    0.96266   0.97974   0.98181   0.99004   1.00239
 Alpha virt. eigenvalues --    1.01954   1.02321   1.05938   1.06540   1.10155
 Alpha virt. eigenvalues --    1.10728   1.12668   1.13619   1.13939   1.14802
 Alpha virt. eigenvalues --    1.15726   1.17220   1.18175   1.18603   1.19711
 Alpha virt. eigenvalues --    1.20265   1.22648   1.24476   1.25351   1.25954
 Alpha virt. eigenvalues --    1.26354   1.26746   1.29040   1.30162   1.32023
 Alpha virt. eigenvalues --    1.32948   1.34695   1.35390   1.37483   1.39558
 Alpha virt. eigenvalues --    1.40679   1.42078   1.42583   1.43762   1.45581
 Alpha virt. eigenvalues --    1.46633   1.48448   1.49164   1.50475   1.52953
 Alpha virt. eigenvalues --    1.54945   1.56008   1.56648   1.58049   1.58876
 Alpha virt. eigenvalues --    1.60643   1.60967   1.61206   1.61708   1.62146
 Alpha virt. eigenvalues --    1.62330   1.62915   1.63914   1.64248   1.65260
 Alpha virt. eigenvalues --    1.65975   1.66830   1.67130   1.67383   1.67839
 Alpha virt. eigenvalues --    1.67982   1.68509   1.68948   1.69338   1.69838
 Alpha virt. eigenvalues --    1.70710   1.71040   1.71355   1.71914   1.72264
 Alpha virt. eigenvalues --    1.72701   1.72902   1.73516   1.73963   1.75079
 Alpha virt. eigenvalues --    1.75347   1.75662   1.75857   1.76096   1.77191
 Alpha virt. eigenvalues --    1.77983   1.78187   1.78876   1.79982   1.80294
 Alpha virt. eigenvalues --    1.80839   1.81267   1.82245   1.82728   1.83553
 Alpha virt. eigenvalues --    1.84179   1.84681   1.85064   1.85609   1.85961
 Alpha virt. eigenvalues --    1.87149   1.87578   1.88113   1.89382   1.90391
 Alpha virt. eigenvalues --    1.90855   1.91275   1.91995   1.92866   1.93423
 Alpha virt. eigenvalues --    1.94630   1.94952   1.96249   1.96975   1.97338
 Alpha virt. eigenvalues --    1.99797   2.01431   2.02129   2.02832   2.04057
 Alpha virt. eigenvalues --    2.05065   2.05717   2.07442   2.08510   2.08864
 Alpha virt. eigenvalues --    2.10519   2.12444   2.13896   2.14586   2.15816
 Alpha virt. eigenvalues --    2.16159   2.17300   2.18812   2.19439   2.20810
 Alpha virt. eigenvalues --    2.21747   2.22667   2.24562   2.24974   2.25952
 Alpha virt. eigenvalues --    2.26635   2.26868   2.28624   2.29420   2.30169
 Alpha virt. eigenvalues --    2.31878   2.32875   2.34055   2.34666   2.35642
 Alpha virt. eigenvalues --    2.37378   2.38438   2.39877   2.41040   2.41827
 Alpha virt. eigenvalues --    2.43463   2.44612   2.45021   2.46624   2.46845
 Alpha virt. eigenvalues --    2.47407   2.47905   2.50078   2.50710   2.51630
 Alpha virt. eigenvalues --    2.54207   2.55070   2.55839   2.57319   2.59688
 Alpha virt. eigenvalues --    2.60951   2.62503   2.65300   2.67417   2.68678
 Alpha virt. eigenvalues --    2.69903   2.72311   2.74454   2.74997   2.77320
 Alpha virt. eigenvalues --    2.77773   2.78649   2.80202   2.81109   2.82406
 Alpha virt. eigenvalues --    2.84196   2.85067   2.85205   2.86678   2.86918
 Alpha virt. eigenvalues --    2.87336   2.88455   2.88850   2.89460   2.90836
 Alpha virt. eigenvalues --    2.91913   2.92173   2.92591   2.94877   2.95657
 Alpha virt. eigenvalues --    2.96159   2.97435   2.99412   2.99500   3.01180
 Alpha virt. eigenvalues --    3.01833   3.03819   3.20001
          Condensed to atoms (all electrons):
 Mulliken charges:
               1
     1  C   -0.003243
     2  C   -0.284350
     3  C   -0.036744
     4  B    0.084201
     5  C   -0.194855
     6  C    0.002700
     7  C   -0.101300
     8  C    0.019418
     9  C   -0.194906
    10  C   -0.018111
    11  C   -0.019344
    12  N   -0.239486
    13  C   -0.005158
    14  C   -0.106869
    15  C   -0.074630
    16  C   -0.092871
    17  C   -0.054635
    18  C   -0.123385
    19  C    0.045689
    20  H    0.090922
    21  H    0.068458
    22  H    0.060515
    23  H    0.069918
    24  H    0.092103
    25  H    0.089446
    26  H    0.045302
    27  H    0.040216
    28  H    0.068750
    29  H    0.072517
    30  H    0.061886
    31  H    0.064141
    32  H    0.039491
    33  H    0.008969
    34  H    0.040636
    35  H    0.058063
    36  H    0.050188
    37  H    0.058886
    38  H    0.122196
    39  H    0.105704
    40  H    0.095177
    41  H    0.056788
    42  H    0.070945
    43  H    0.071868
    44  H    0.078866
    45  H    0.035007
    46  H    0.065714
    47  H    0.071163
    48  H    0.088135
    49  H    0.048568
    50  H    0.087971
    51  H    0.094579
    52  H    0.224791
 Sum of Mulliken charges =   1.00000
 Mulliken charges with hydrogens summed into heavy atoms:
               1
     1  C    0.216652
     2  C   -0.284350
     3  C    0.214723
     4  B    0.084201
     5  C   -0.149553
     6  C    0.111666
     7  C    0.033103
     8  C    0.123050
     9  C   -0.185937
    10  C    0.080588
    11  C    0.089730
    12  N   -0.014695
    13  C    0.222742
    14  C    0.045097
    15  C    0.068183
    16  C    0.021001
    17  C    0.082242
    18  C    0.013318
    19  C    0.228239
 Electronic spatial extent (au):  <R**2>=           5876.9112
 Charge=              1.0000 electrons
 Dipole moment (field-independent basis, Debye):
    X=             -3.6458    Y=              1.9950    Z=              0.0421  Tot=              4.1561
 Quadrupole moment (field-independent basis, Debye-Ang):
   XX=            -84.9361   YY=           -104.7205   ZZ=           -112.5948
   XY=              0.1546   XZ=              0.0566   YZ=             -0.8256
 Traceless Quadrupole moment (field-independent basis, Debye-Ang):
   XX=             15.8143   YY=             -3.9700   ZZ=            -11.8443
   XY=              0.1546   XZ=              0.0566   YZ=             -0.8256
 Octapole moment (field-independent basis, Debye-Ang**2):
  XXX=            -44.3037  YYY=             16.8488  ZZZ=              1.7063  XYY=            -12.6145
  XXY=             -3.2846  XXZ=             -9.6413  XZZ=            -10.3742  YZZ=              2.3128
  YYZ=              1.5217  XYZ=              3.1512
 Hexadecapole moment (field-independent basis, Debye-Ang**3):
 XXXX=          -5081.6111 YYYY=          -1381.7286 ZZZZ=           -851.9228 XXXY=              2.9125
 XXXZ=              1.8891 YYYX=              3.7093 YYYZ=             -3.8345 ZZZX=              1.8416
 ZZZY=              3.0244 XXYY=          -1095.0419 XXZZ=          -1044.2136 YYZZ=           -377.0409
 XXYZ=             -3.6853 YYXZ=              0.7073 ZZXY=             -1.1124
 N-N= 1.613274514370D+03 E-N=-4.928004197482D+03  KE= 7.360816185992D+02
 No NMR shielding tensors so no spin-rotation constants.
 Leave Link  601 at Fri Jan 24 16:53:49 2025, MaxMem=  3221225472 cpu:               6.5 elap:               0.3
 (Enter /software/gaussian/G16-C.01/avx2/g16/l701.exe)
 ... and contract with generalized density number  0.
 Compute integral first derivatives.
 R6Disp: Adding Grimme-D3(BJ) dispersion energy 1st derivatives to the gradient.
   1 Symmetry operations used in ECPInt.
 ECPInt:  NShTT=   22791 NPrTT=   77767 LenC2=   21358 LenP2D=   53236.
 LDataN:  DoStor=T MaxTD1= 5 Len=  102
 Leave Link  701 at Fri Jan 24 16:53:49 2025, MaxMem=  3221225472 cpu:               7.9 elap:               0.3
 (Enter /software/gaussian/G16-C.01/avx2/g16/l702.exe)
 L702 exits ... SP integral derivatives will be done elsewhere.
 Leave Link  702 at Fri Jan 24 16:53:49 2025, MaxMem=  3221225472 cpu:               1.5 elap:               0.1
 (Enter /software/gaussian/G16-C.01/avx2/g16/l703.exe)
 Integral derivatives from FoFJK, PRISM(SPDF).
 Compute integral first derivatives, UseDBF=F ICtDFT=           0.
 Calling FoFJK, ICntrl=      2127 FMM=F ISym2X=0 I1Cent= 0 IOpClX= 0 NMat=1 NMatS=1 NMatT=0.
 FoFJK:  IHMeth= 1 ICntrl=    2127 DoSepK=F KAlg= 0 I1Cent=           0 FoldK=F
 IRaf=         0 NMat=       1 IRICut=       1 DoRegI=T DoRafI=F ISym2E= 0 IDoP0=0 IntGTp=1.
 FoFCou: FMM=F IPFlag=           0 FMFlag=      100000 FMFlg1=         800
         NFxFlg=           0 DoJE=F BraDBF=F KetDBF=F FulRan=T
         wScrn=  0.000000 ICntrl=      2127 IOpCl=  0 I1Cent=           0 NGrid=           0
         NMat0=    1 NMatS0=      1 NMatT0=    0 NMatD0=    1 NMtDS0=    0 NMtDT0=    0
 Symmetry not used in FoFCou.
 Leave Link  703 at Fri Jan 24 16:54:02 2025, MaxMem=  3221225472 cpu:             308.4 elap:              12.9
 (Enter /software/gaussian/G16-C.01/avx2/g16/l716.exe)
 Dipole        =-1.43435635D+00 7.84901524D-01 1.65568284D-02
 ***** Axes restored to original set *****
 -------------------------------------------------------------------
 Center     Atomic                   Forces (Hartrees/Bohr)
 Number     Number              X              Y              Z
 -------------------------------------------------------------------
      1        6          -0.017184370   -0.007078144   -0.006611842
      2        6           0.022184893    0.026671328   -0.012797078
      3        6          -0.032588085   -0.001238865   -0.000643169
      4        5          -0.011564937   -0.003141221    0.013995972
      5        6          -0.006170889    0.035245493    0.002753444
      6        6           0.016462719   -0.000989162   -0.004797499
      7        6          -0.004752018    0.009983503   -0.007457693
      8        6           0.002636864    0.001798947   -0.001030427
      9        6          -0.002757324   -0.006926066   -0.000879599
     10        6          -0.009914495    0.002403546    0.004549692
     11        6           0.002066011   -0.013681987   -0.002026121
     12        7           0.023979827   -0.037745597   -0.007965358
     13        6           0.006761336    0.019327810    0.038227374
     14        6          -0.009712568   -0.012227545    0.004444657
     15        6          -0.005498440    0.006285827    0.017247273
     16        6          -0.001911365   -0.009511117   -0.011085381
     17        6          -0.001139586    0.018135798    0.002479366
     18        6          -0.007069576    0.011874972   -0.011934191
     19        6          -0.036189894   -0.014872385   -0.008172654
     20        1          -0.004153043   -0.003885140    0.002362750
     21        1           0.002726515    0.001519638    0.003181004
     22        1           0.011407777   -0.002306746    0.003788832
     23        1           0.004927626    0.005692668   -0.003678150
     24        1           0.009677653    0.000173755    0.001157806
     25        1           0.010190731   -0.009682533    0.015706992
     26        1           0.008932500   -0.013731043   -0.002639011
     27        1           0.000771131   -0.001306407    0.005977040
     28        1          -0.010049914   -0.008525716   -0.007501043
     29        1          -0.005043498   -0.000315709    0.007964340
     30        1          -0.002982175   -0.001018002   -0.002395733
     31        1          -0.002684976    0.000759867   -0.003273113
     32        1           0.002293881   -0.000265584    0.006216100
     33        1           0.004206262   -0.008712738   -0.000225158
     34        1           0.010485305   -0.000497056   -0.002815041
     35        1          -0.005016085    0.002062684   -0.002171592
     36        1           0.004977190   -0.000862118   -0.000966777
     37        1          -0.006504033    0.004433735   -0.000501311
     38        1          -0.004305823   -0.008534015   -0.022614529
     39        1           0.007359267   -0.018687905   -0.008706561
     40        1          -0.001265847    0.001382848   -0.008153149
     41        1          -0.000183973    0.010247503    0.002072701
     42        1           0.005545306    0.008505560   -0.005208775
     43        1           0.002319907   -0.007343345   -0.009481894
     44        1           0.003359987    0.001583114   -0.000618493
     45        1           0.000062490   -0.009764090    0.002824585
     46        1          -0.002376830   -0.001886050   -0.000122320
     47        1           0.002496583   -0.004912850    0.003984889
     48        1           0.002486720    0.004679233    0.007934631
     49        1           0.005671486   -0.002290332    0.004215662
     50        1           0.015833825    0.000503596   -0.003437089
     51        1           0.006762438   -0.006250258    0.006700977
     52        1          -0.005566487    0.044918299    0.002124665
 -------------------------------------------------------------------
 Cartesian Forces:  Max     0.044918299 RMS     0.010900293
 Leave Link  716 at Fri Jan 24 16:54:02 2025, MaxMem=  3221225472 cpu:               2.1 elap:               0.1
 (Enter /software/gaussian/G16-C.01/avx2/g16/l103.exe)

 GradGradGradGradGradGradGradGradGradGradGradGradGradGradGradGradGradGrad
 Berny optimization.
 FormGI is forming the generalized inverse of G from B-inverse, IUseBI=4.
 Internal  Forces:  Max     0.045020800 RMS     0.004888614
 Search for a local minimum.
 Step number   1 out of a maximum of  312
 All quantities printed in internal units (Hartrees-Bohrs-Radians)
 RMS Force = .48886D-02 SwitMx=.10000D-02 MixMth= 1
 Mixed Optimization -- RFO/linear search
 Second derivative matrix not updated -- first step.
 ITU=  0
     Eigenvalues ---    0.00230   0.00230   0.00230   0.00230   0.00327
[...]
                 (A) (A) (A) (A) (A) (A) (A) (A) (A) (A) (A) (A)
                 (A) (A) (A) (A) (A) (A) (A) (A) (A) (A) (A) (A)
                 (A) (A) (A) (A) (A) (A) (A) (A) (A) (A) (A) (A)
                 (A) (A) (A) (A) (A) (A) (A) (A) (A) (A) (A) (A)
                 (A) (A) (A) (A) (A) (A) (A) (A) (A) (A) (A) (A)
                 (A) (A) (A) (A) (A) (A) (A) (A) (A) (A) (A) (A)
                 (A) (A) (A) (A) (A) (A) (A) (A) (A) (A) (A) (A)
                 (A) (A) (A) (A) (A) (A) (A) (A) (A) (A) (A) (A)
                 (A) (A) (A) (A) (A) (A) (A) (A) (A) (A) (A) (A)
                 (A) (A) (A) (A) (A) (A)
 The electronic state is 1-A.
 Alpha  occ. eigenvalues --  -14.64179 -10.41775 -10.41368 -10.41053 -10.36577
 Alpha  occ. eigenvalues --  -10.36438 -10.36348 -10.35407 -10.34188 -10.34121
 Alpha  occ. eigenvalues --  -10.33838 -10.33452 -10.33008 -10.32891 -10.32862
 Alpha  occ. eigenvalues --  -10.32559 -10.31902 -10.31677  -6.89697  -1.17681
 Alpha  occ. eigenvalues --   -0.98345  -0.97522  -0.95998  -0.94911  -0.89134
 Alpha  occ. eigenvalues --   -0.88348  -0.87732  -0.86887  -0.85380  -0.80960
 Alpha  occ. eigenvalues --   -0.78733  -0.76714  -0.76134  -0.75057  -0.71724
 Alpha  occ. eigenvalues --   -0.68505  -0.68184  -0.66735  -0.66118  -0.64928
 Alpha  occ. eigenvalues --   -0.62594  -0.62423  -0.61635  -0.60403  -0.59787
 Alpha  occ. eigenvalues --   -0.58882  -0.57404  -0.56111  -0.55364  -0.54820
 Alpha  occ. eigenvalues --   -0.54298  -0.53782  -0.53694  -0.53482  -0.52475
 Alpha  occ. eigenvalues --   -0.52327  -0.51339  -0.50981  -0.50795  -0.50418
 Alpha  occ. eigenvalues --   -0.49708  -0.49466  -0.48831  -0.47352  -0.45708
 Alpha  occ. eigenvalues --   -0.45287  -0.44759  -0.44346  -0.43741  -0.43589
 Alpha  occ. eigenvalues --   -0.42664  -0.40841  -0.39983
 Alpha virt. eigenvalues --   -0.15514  -0.10712  -0.08874  -0.08415  -0.06930
 Alpha virt. eigenvalues --   -0.06791  -0.05843  -0.04528  -0.04316  -0.04067
 Alpha virt. eigenvalues --   -0.03451  -0.03206  -0.02808  -0.02429  -0.01665
 Alpha virt. eigenvalues --   -0.01514  -0.01229  -0.00585  -0.00066   0.00240
 Alpha virt. eigenvalues --    0.00428   0.01173   0.01265   0.01663   0.02216
 Alpha virt. eigenvalues --    0.02507   0.02806   0.03396   0.03999   0.04182
 Alpha virt. eigenvalues --    0.04469   0.05024   0.05250   0.05595   0.05968
 Alpha virt. eigenvalues --    0.06493   0.06994   0.07270   0.07708   0.07892
 Alpha virt. eigenvalues --    0.08326   0.08579   0.09152   0.09620   0.09935
 Alpha virt. eigenvalues --    0.10168   0.10894   0.11856   0.12094   0.12409
 Alpha virt. eigenvalues --    0.12651   0.13358   0.13722   0.14114   0.14617
 Alpha virt. eigenvalues --    0.14936   0.15398   0.16048   0.16280   0.16524
 Alpha virt. eigenvalues --    0.17039   0.17266   0.18112   0.18321   0.18540
 Alpha virt. eigenvalues --    0.19537   0.19767   0.20239   0.20562   0.21408
 Alpha virt. eigenvalues --    0.21587   0.22522   0.23178   0.23351   0.23931
 Alpha virt. eigenvalues --    0.25260   0.25999   0.26473   0.26551   0.27201
 Alpha virt. eigenvalues --    0.28010   0.28455   0.28788   0.29167   0.29497
 Alpha virt. eigenvalues --    0.29635   0.30434   0.30492   0.30805   0.30991
 Alpha virt. eigenvalues --    0.31098   0.31515   0.31712   0.32036   0.32597
 Alpha virt. eigenvalues --    0.32815   0.33478   0.33669   0.33990   0.34076
 Alpha virt. eigenvalues --    0.34375   0.34782   0.35226   0.35378   0.35475
 Alpha virt. eigenvalues --    0.35604   0.35897   0.36265   0.36545   0.36944
 Alpha virt. eigenvalues --    0.37323   0.37391   0.37650   0.38156   0.38445
 Alpha virt. eigenvalues --    0.38984   0.39061   0.39650   0.40194   0.40538
 Alpha virt. eigenvalues --    0.40861   0.41152   0.41835   0.42055   0.42386
 Alpha virt. eigenvalues --    0.42488   0.43158   0.43812   0.44058   0.44360
 Alpha virt. eigenvalues --    0.44530   0.45801   0.45952   0.46623   0.47393
 Alpha virt. eigenvalues --    0.48055   0.48676   0.49161   0.50472   0.50844
 Alpha virt. eigenvalues --    0.51450   0.52077   0.52238   0.52937   0.54218
 Alpha virt. eigenvalues --    0.55176   0.55636   0.56142   0.56593   0.58129
 Alpha virt. eigenvalues --    0.58466   0.60320   0.60529   0.61009   0.61608
 Alpha virt. eigenvalues --    0.62196   0.63028   0.64147   0.64605   0.66074
 Alpha virt. eigenvalues --    0.66652   0.67043   0.68216   0.68700   0.69756
 Alpha virt. eigenvalues --    0.70012   0.71072   0.71530   0.71945   0.73095
 Alpha virt. eigenvalues --    0.74499   0.75073   0.76078   0.76324   0.76849
 Alpha virt. eigenvalues --    0.77670   0.78537   0.78857   0.79754   0.80252
 Alpha virt. eigenvalues --    0.81508   0.82065   0.82354   0.82949   0.84006
 Alpha virt. eigenvalues --    0.84263   0.85322   0.85900   0.86351   0.88147
 Alpha virt. eigenvalues --    0.88559   0.88797   0.89659   0.90282   0.91119
 Alpha virt. eigenvalues --    0.91783   0.92291   0.93073   0.93176   0.93784
 Alpha virt. eigenvalues --    0.94189   0.94887   0.95849   0.96117   0.97013
 Alpha virt. eigenvalues --    0.97623   0.98492   0.99522   1.00280   1.01513
 Alpha virt. eigenvalues --    1.02647   1.03265   1.03466   1.04484   1.05113
 Alpha virt. eigenvalues --    1.05554   1.05975   1.07348   1.07458   1.08172
 Alpha virt. eigenvalues --    1.08395   1.09556   1.10015   1.10534   1.11576
 Alpha virt. eigenvalues --    1.12254   1.12825   1.13959   1.14614   1.14892
 Alpha virt. eigenvalues --    1.15447   1.15900   1.16021   1.17020   1.17466
 Alpha virt. eigenvalues --    1.18720   1.18905   1.19377   1.20640   1.21041
 Alpha virt. eigenvalues --    1.22436   1.22741   1.23684   1.25835   1.26164
 Alpha virt. eigenvalues --    1.26999   1.27531   1.28963   1.31692   1.31927
 Alpha virt. eigenvalues --    1.32724   1.34272   1.34579   1.35805   1.37171
 Alpha virt. eigenvalues --    1.39127   1.39951   1.40279   1.41456   1.41873
 Alpha virt. eigenvalues --    1.42424   1.43348   1.43841   1.44658   1.45942
 Alpha virt. eigenvalues --    1.46251   1.46748   1.47996   1.48240   1.48345
 Alpha virt. eigenvalues --    1.49418   1.50291   1.50579   1.50668   1.51200
 Alpha virt. eigenvalues --    1.51391   1.52295   1.52866   1.53419   1.53891
 Alpha virt. eigenvalues --    1.54115   1.54566   1.54762   1.55321   1.55716
 Alpha virt. eigenvalues --    1.56624   1.57354   1.57877   1.58933   1.59695
 Alpha virt. eigenvalues --    1.60052   1.60946   1.61413   1.62944   1.64126
 Alpha virt. eigenvalues --    1.64653   1.65078   1.65484   1.66317   1.67844
 Alpha virt. eigenvalues --    1.68495   1.69294   1.69554   1.70100   1.70921
 Alpha virt. eigenvalues --    1.72041   1.72653   1.73360   1.74328   1.74747
 Alpha virt. eigenvalues --    1.75619   1.76494   1.76738   1.77672   1.78371
 Alpha virt. eigenvalues --    1.79164   1.80425   1.81023   1.81864   1.82653
 Alpha virt. eigenvalues --    1.82972   1.83704   1.84344   1.85778   1.87065
 Alpha virt. eigenvalues --    1.87285   1.87410   1.88536   1.89451   1.89741
 Alpha virt. eigenvalues --    1.89963   1.91676   1.92112   1.92805   1.93892
 Alpha virt. eigenvalues --    1.95132   1.95609   1.95873   1.97200   1.97272
 Alpha virt. eigenvalues --    1.98942   1.99813   2.00170   2.01068   2.01880
 Alpha virt. eigenvalues --    2.03109   2.03615   2.03843   2.05462   2.06257
 Alpha virt. eigenvalues --    2.06747   2.07273   2.08706   2.09673   2.11543
 Alpha virt. eigenvalues --    2.11687   2.12462   2.12888   2.13590   2.14686
 Alpha virt. eigenvalues --    2.15339   2.15577   2.17875   2.19333   2.20390
 Alpha virt. eigenvalues --    2.21032   2.22567   2.23276   2.23762   2.24397
 Alpha virt. eigenvalues --    2.24902   2.25305   2.26700   2.27075   2.27855
 Alpha virt. eigenvalues --    2.28427   2.29100   2.29974   2.31198   2.32010
 Alpha virt. eigenvalues --    2.32831   2.34164   2.34486   2.35615   2.35829
 Alpha virt. eigenvalues --    2.36586   2.37693   2.38593   2.38924   2.39178
 Alpha virt. eigenvalues --    2.39806   2.40241   2.41149   2.41760   2.41925
 Alpha virt. eigenvalues --    2.42512   2.42724   2.43444   2.44509   2.44980
 Alpha virt. eigenvalues --    2.45642   2.46377   2.46784   2.47540   2.47930
 Alpha virt. eigenvalues --    2.48461   2.49499   2.49989   2.50252   2.50675
 Alpha virt. eigenvalues --    2.51177   2.51904   2.52022   2.52477   2.52973
 Alpha virt. eigenvalues --    2.54005   2.54704   2.55101   2.55414   2.55936
 Alpha virt. eigenvalues --    2.56222   2.56498   2.56994   2.57243   2.58430
 Alpha virt. eigenvalues --    2.58865   2.59198   2.59639   2.60274   2.61484
 Alpha virt. eigenvalues --    2.61721   2.62161   2.63016   2.63393   2.64191
 Alpha virt. eigenvalues --    2.64712   2.65451   2.65704   2.65923   2.66410
 Alpha virt. eigenvalues --    2.67265   2.67673   2.68202   2.68675   2.69139
 Alpha virt. eigenvalues --    2.70011   2.71106   2.72279   2.72849   2.73675
 Alpha virt. eigenvalues --    2.74037   2.75112   2.75835   2.77075   2.78152
 Alpha virt. eigenvalues --    2.78590   2.79000   2.79860   2.80362   2.81178
 Alpha virt. eigenvalues --    2.82279   2.82500   2.82922   2.83392   2.84498
 Alpha virt. eigenvalues --    2.86111   2.86405   2.87509   2.88679   2.89428
 Alpha virt. eigenvalues --    2.90509   2.91091   2.91740   2.93356   2.94150
 Alpha virt. eigenvalues --    2.94810   2.95422   2.95787   2.96446   2.97730
 Alpha virt. eigenvalues --    2.98724   2.99754   3.00580   3.01207   3.02238
 Alpha virt. eigenvalues --    3.03095   3.04052   3.04832   3.05277   3.06211
 Alpha virt. eigenvalues --    3.06598   3.07163   3.07869   3.08238   3.09274
 Alpha virt. eigenvalues --    3.09793   3.10800   3.11599   3.12223   3.13155
 Alpha virt. eigenvalues --    3.14346   3.15168   3.15476   3.15626   3.16821
 Alpha virt. eigenvalues --    3.17795   3.18220   3.18396   3.19328   3.19525
 Alpha virt. eigenvalues --    3.19664   3.20835   3.21225   3.21441   3.22167
 Alpha virt. eigenvalues --    3.22683   3.23079   3.23534   3.24135   3.24712
 Alpha virt. eigenvalues --    3.25150   3.25653   3.26264   3.26285   3.27587
 Alpha virt. eigenvalues --    3.28214   3.29357   3.29803   3.30706   3.31135
 Alpha virt. eigenvalues --    3.32079   3.32101   3.32439   3.33686   3.34790
 Alpha virt. eigenvalues --    3.36215   3.37096   3.37160   3.37785   3.38589
 Alpha virt. eigenvalues --    3.39387   3.40826   3.41052   3.41557   3.41957
 Alpha virt. eigenvalues --    3.43003   3.43333   3.44591   3.45054   3.45763
 Alpha virt. eigenvalues --    3.46674   3.48045   3.48390   3.48851   3.49806
 Alpha virt. eigenvalues --    3.50718   3.51753   3.52345   3.53587   3.54074
 Alpha virt. eigenvalues --    3.55196   3.56802   3.57132   3.57805   3.58141
 Alpha virt. eigenvalues --    3.58393   3.59111   3.60165   3.61768   3.62757
 Alpha virt. eigenvalues --    3.63902   3.64647   3.65648   3.65978   3.66892
 Alpha virt. eigenvalues --    3.68904   3.69877   3.70313   3.71050   3.71947
 Alpha virt. eigenvalues --    3.72761   3.73628   3.74897   3.75442   3.76318
 Alpha virt. eigenvalues --    3.77460   3.78155   3.80457   3.82023   3.82401
 Alpha virt. eigenvalues --    3.83421   3.85949   3.87898   3.88008   3.88735
 Alpha virt. eigenvalues --    3.88995   3.89859   3.90575   3.90768   3.91228
 Alpha virt. eigenvalues --    3.91898   3.92371   3.93094   3.93340   3.95703
 Alpha virt. eigenvalues --    3.96224   3.97142   3.98085   3.99209   3.99476
 Alpha virt. eigenvalues --    4.00015   4.01320   4.01856   4.02828   4.03651
 Alpha virt. eigenvalues --    4.04692   4.05097   4.05673   4.07656   4.09146
 Alpha virt. eigenvalues --    4.10403   4.11218   4.12824   4.14103   4.15284
 Alpha virt. eigenvalues --    4.15552   4.16209   4.18059   4.18666   4.19145
 Alpha virt. eigenvalues --    4.20240   4.21025   4.22316   4.23103   4.24049
 Alpha virt. eigenvalues --    4.25281   4.25941   4.26680   4.28373   4.30190
 Alpha virt. eigenvalues --    4.30735   4.32345   4.32668   4.34971   4.36048
 Alpha virt. eigenvalues --    4.37048   4.38631   4.39749   4.40800   4.43369
 Alpha virt. eigenvalues --    4.44113   4.44815   4.45675   4.46786   4.48755
 Alpha virt. eigenvalues --    4.49413   4.51900   4.53503   4.55234   4.55740
 Alpha virt. eigenvalues --    4.58155   4.63464   4.66741   4.69263   4.69550
 Alpha virt. eigenvalues --    4.71426   4.72590   4.74064   4.76408   4.77017
 Alpha virt. eigenvalues --    4.80404   4.81172   4.81926   4.82574   4.85171
 Alpha virt. eigenvalues --    4.88295   4.90539   4.91588   4.93491   4.94199
 Alpha virt. eigenvalues --    4.96403   4.99229   5.00709   5.02003   5.13237
 Alpha virt. eigenvalues --    5.15194   5.19045   5.22986   5.30443   5.31737
 Alpha virt. eigenvalues --    5.35148   5.63684   5.66446   5.69578   5.86185
 Alpha virt. eigenvalues --   15.43002  22.37777  22.41076  22.43932  22.44817
 Alpha virt. eigenvalues --   22.45190  22.46577  22.49611  22.53015  22.53271
 Alpha virt. eigenvalues --   22.56328  22.57480  22.58142  22.59662  22.60993
 Alpha virt. eigenvalues --   22.74683  22.77312  22.83416  32.73948
          Condensed to atoms (all electrons):
 Mulliken charges:
               1
     1  C   -0.421007
     2  C    0.185080
     3  C   -0.416277
     4  B   -0.710003
     5  C    0.039405
     6  C   -0.169070
     7  C   -0.231967
     8  C   -0.162130
     9  C    0.031056
    10  C   -0.237491
    11  C   -0.216637
    12  N    0.099606
    13  C   -0.282205
    14  C   -0.228776
    15  C   -0.249930
    16  C   -0.163942
    17  C   -0.279010
    18  C   -0.185784
    19  C   -0.262546
    20  H    0.182208
    21  H    0.161168
    22  H    0.156062
    23  H    0.168180
    24  H    0.188775
    25  H    0.168897
    26  H    0.117469
    27  H    0.114395
    28  H    0.139598
    29  H    0.141671
    30  H    0.132174
    31  H    0.141148
    32  H    0.113550
    33  H    0.086728
    34  H    0.129091
    35  H    0.140638
    36  H    0.132439
    37  H    0.140766
    38  H    0.190971
    39  H    0.180972
    40  H    0.158760
    41  H    0.119512
    42  H    0.138040
    43  H    0.144283
    44  H    0.154593
    45  H    0.094770
    46  H    0.137041
    47  H    0.145871
    48  H    0.159814
    49  H    0.115663
    50  H    0.172149
    51  H    0.176772
    52  H    0.217459
 Sum of Mulliken charges =   1.00000
 Mulliken charges with hydrogens summed into heavy atoms:
               1
     1  C    0.078432
     2  C    0.185080
     3  C    0.109576
     4  B   -0.710003
     5  C    0.156874
     6  C    0.084923
     7  C    0.041878
     8  C    0.092568
     9  C    0.117784
    10  C    0.032238
    11  C    0.056568
    12  N    0.317065
    13  C    0.089738
    14  C    0.049496
    15  C    0.032393
    16  C    0.085421
    17  C    0.003901
    18  C    0.089693
    19  C    0.086375
 Electronic spatial extent (au):  <R**2>=           5843.5257
 Charge=              1.0000 electrons
 Dipole moment (field-independent basis, Debye):
    X=             -3.2367    Y=              1.7425    Z=             -0.1602  Tot=              3.6795
 Quadrupole moment (field-independent basis, Debye-Ang):
   XX=            -84.1721   YY=           -105.0583   ZZ=           -111.3138
   XY=              0.2772   XZ=              0.4087   YZ=             -0.6685
 Traceless Quadrupole moment (field-independent basis, Debye-Ang):
   XX=             16.0093   YY=             -4.8769   ZZ=            -11.1324
   XY=              0.2772   XZ=              0.4087   YZ=             -0.6685
 Octapole moment (field-independent basis, Debye-Ang**2):
  XXX=            -47.5756  YYY=             13.5325  ZZZ=              0.2894  XYY=            -13.3881
  XXY=             -3.6933  XXZ=             -9.9971  XZZ=             -6.4319  YZZ=              2.8710
  YYZ=              0.7527  XYZ=              3.9351
 Hexadecapole moment (field-independent basis, Debye-Ang**3):
 XXXX=          -5034.7557 YYYY=          -1360.8232 ZZZZ=           -856.0783 XXXY=              7.5805
 XXXZ=              5.4695 YYYX=              3.3665 YYYZ=             -3.8282 ZZZX=              1.2003
 ZZZY=              4.4505 XXYY=          -1097.9841 XXZZ=          -1037.1652 YYZZ=           -370.1390
 XXYZ=             -7.1649 YYXZ=              1.3062 ZZXY=              0.6907
 N-N= 1.620696591293D+03 E-N=-4.950381399593D+03  KE= 7.420317816949D+02
 No NMR shielding tensors so no spin-rotation constants.
 Leave Link  601 at Fri Jan 24 17:22:41 2025, MaxMem=  3221225472 cpu:              13.4 elap:               0.7
 (Enter /software/gaussian/G16-C.01/avx2/g16/l9999.exe)
 Unable to Open any file for archive entry.
 1\1\GINC-NODE26\SP\RPBE1PBE\def2TZVP\C17H33B1N1(1+)\LAPLAZA\24-Jan-202
 5\0\\#p def2tzvp pbe1pbe integral=ultrafinegrid geom=allcheck guess=re
 ad em=gd3bj\\with_proton\\1,1\C,0,-0.0537409956,2.3368953715,-0.943198
 5143\C,0,0.2721230402,0.8524761435,-0.9919499938\C,0,0.6952733952,0.42
 92208821,-2.4025471483\B,0,1.5018449969,0.4127481407,-0.072971235\C,0,
 2.7334146616,1.2645378295,0.3792913091\C,0,3.9305725871,0.7701796979,-
 0.4754661027\C,0,4.2042145305,-0.7171475933,-0.2715525904\C,0,2.946730
 1311,-1.5784466658,-0.3518884125\C,0,1.7899944652,-1.0161772606,0.5225
 942141\C,0,2.2879578544,-0.6422972596,1.936453905\C,0,2.8652912201,0.8
 001505707,1.8488767089\N,0,-0.9406136538,0.0220262582,-0.5455798349\C,
 0,-1.2599530103,0.2890736476,0.8956668098\C,0,-1.9866721123,-0.8516369
 722,1.6055353154\C,0,-3.4830419936,-0.6391550671,1.8559146789\C,0,-4.2
 983601416,-0.0482294932,0.7133103622\C,0,-4.3817221464,-0.8544549122,-
 0.5759778848\C,0,-3.0730399785,-1.1193931859,-1.3269104925\C,0,-2.1194
 681198,0.0684240244,-1.4695647249\H,0,0.8188910493,2.8941347776,-1.309
 4496172\H,0,-0.2550781273,2.700378157,0.0743509492\H,0,-0.9024788818,2
 .6040203357,-1.5920237575\H,0,0.7404487585,-0.6647954098,-2.5198232824
 \H,0,1.7045517818,0.8157232078,-2.6066035223\H,0,0.0413819036,0.845056
 5081,-3.1846693986\H,0,2.6524763363,2.3575838579,0.2921357046\H,0,3.74
 2142918,0.9795799942,-1.543464163\H,0,4.826989408,1.3550720731,-0.2116
 849342\H,0,4.9441798183,-1.0691407449,-1.006925556\H,0,4.6777000288,-0
 .86493463,0.7122905525\H,0,3.1757707557,-2.6049190468,-0.0206052591\H,
 0,2.6175991957,-1.6690400444,-1.4021751378\H,0,0.982797864,-1.76891298
 37,0.5584593955\H,0,1.4538640662,-0.6820205992,2.6557577088\H,0,3.0303
 165952,-1.3683432437,2.3039098753\H,0,2.3008884821,1.4788405426,2.5070
 26804\H,0,3.910526502,0.8490065344,2.1932014456\H,0,-0.2901738761,0.47
 49836024,1.3783627019\H,0,-1.8226133532,1.2306251177,0.9356791318\H,0,
 -1.4945568846,-0.9971670147,2.5789684592\H,0,-1.8037888874,-1.79392122
 25,1.0651221824\H,0,-3.9190027957,-1.6023112473,2.1667795609\H,0,-3.59
 32727869,0.0276689489,2.7267705954\H,0,-5.3252931151,0.1073715178,1.07
 87708723\H,0,-3.9373196803,0.9721842796,0.4892047811\H,0,-4.8634536848
 ,-1.8255587545,-0.3771154924\H,0,-5.0648700656,-0.323287028,-1.2589396
 889\H,0,-3.3305782414,-1.4543030837,-2.342679187\H,0,-2.5300374571,-1.
 9729108272,-0.8892774284\H,0,-1.7003089042,0.0891150683,-2.4808838866\
 H,0,-2.6248975616,1.0295445707,-1.3067920591\H,0,-0.589278611,-0.94324
 40995,-0.5672569694\\Version=ES64L-G16RevC.01\State=1-A\HF=-746.468303
 6\RMSD=4.500e-09\Dipole=-1.2732209,0.0591321,-0.6863071\Quadrupole=11.
 7318091,-7.9429826,-3.7888265,1.8768687,0.1681622,-0.9745664\PG=C01 [X
 (C17H33B1N1)]\\@
 The archive entry for this job was punched.


 HIGGLEDY-PIGGLEDY
 NIC'LAUS COPERNICUS
 LOOKED AT THE UNIVERSE,
 SPOKE TO THE THRONG;
 GIVE UP YOUR PTOLOMY,
 RISE UP AND FOLLOW ME,
 HELIOCENTRICALLY
 PTOLEMY'S WRONG.
   -- NANCY L. STARK
 Job cpu time:       0 days  2 hours 28 minutes 37.7 seconds.
 Elapsed time:       0 days  0 hours  6 minutes 11.8 seconds.
 File lengths (MBytes):  RWF=    322 Int=      0 D2E=      0 Chk=     47 Scr=      1
 Normal termination of Gaussian 16 at Fri Jan 24 17:22:41 2025.
