 Entering Gaussian System, Link 0=g16
 Input=neutral.com
 Output=neutral.log
 Initial command:
 /software/gaussian/G16-C.01/avx2/g16/l1.exe "/scratch/laplaza/9953170.slurm/Gau-419829.inp" -scrdir="/scratch/laplaza/9953170.slurm/"
 Entering Link 1 = /software/gaussian/G16-C.01/avx2/g16/l1.exe PID=    419830.
  
 Copyright (c) 1988-2019, Gaussian, Inc.  All Rights Reserved.
  
 This is part of the Gaussian(R) 16 program.  It is based on
 the Gaussian(R) 09 system (copyright 2009, Gaussian, Inc.),
 the Gaussian(R) 03 system (copyright 2003, Gaussian, Inc.),
 the Gaussian(R) 98 system (copyright 1998, Gaussian, Inc.),
 the Gaussian(R) 94 system (copyright 1995, Gaussian, Inc.),
 the Gaussian 92(TM) system (copyright 1992, Gaussian, Inc.),
 the Gaussian 90(TM) system (copyright 1990, Gaussian, Inc.),
 the Gaussian 88(TM) system (copyright 1988, Gaussian, Inc.),
 the Gaussian 86(TM) system (copyright 1986, Carnegie Mellon
 University), and the Gaussian 82(TM) system (copyright 1983,
 Carnegie Mellon University). Gaussian is a federally registered
 trademark of Gaussian, Inc.
  
 This software contains proprietary and confidential information,
 including trade secrets, belonging to Gaussian, Inc.
  
 This software is provided under written license and may be
 used, copied, transmitted, or stored only in accord with that
 written license.
  
 The following legend is applicable only to US Government
 contracts under FAR:
  
                    RESTRICTED RIGHTS LEGEND
  
 Use, reproduction and disclosure by the US Government is
 subject to restrictions as set forth in subparagraphs (a)
 and (c) of the Commercial Computer Software - Restricted
 Rights clause in FAR 52.227-19.
  
 Gaussian, Inc.
 340 Quinnipiac St., Bldg. 40, Wallingford CT 06492
  
  
 ---------------------------------------------------------------
 Warning -- This program may not be used in any manner that
 competes with the business of Gaussian, Inc. or will provide
 assistance to any competitor of Gaussian, Inc.  The licensee
 of this program is prohibited from giving any competitor of
 Gaussian, Inc. access to this program.  By using this program,
 the user acknowledges that Gaussian, Inc. is engaged in the
 business of creating and licensing software in the field of
 computational chemistry and represents and warrants to the
 licensee that it is not a competitor of Gaussian, Inc. and that
 it will not use this program in any manner prohibited above.
 ---------------------------------------------------------------
  

 Cite this work as:
 Gaussian 16, Revision C.01,
 M. J. Frisch, G. W. Trucks, H. B. Schlegel, G. E. Scuseria, 
 M. A. Robb, J. R. Cheeseman, G. Scalmani, V. Barone, 
 G. A. Petersson, H. Nakatsuji, X. Li, M. Caricato, A. V. Marenich, 
 J. Bloino, B. G. Janesko, R. Gomperts, B. Mennucci, H. P. Hratchian, 
 J. V. Ortiz, A. F. Izmaylov, J. L. Sonnenberg, D. Williams-Young, 
 F. Ding, F. Lipparini, F. Egidi, J. Goings, B. Peng, A. Petrone, 
 T. Henderson, D. Ranasinghe, V. G. Zakrzewski, J. Gao, N. Rega, 
 G. Zheng, W. Liang, M. Hada, M. Ehara, K. Toyota, R. Fukuda, 
 J. Hasegawa, M. Ishida, T. Nakajima, Y. Honda, O. Kitao, H. Nakai, 
 T. Vreven, K. Throssell, J. A. Montgomery, Jr., J. E. Peralta, 
 F. Ogliaro, M. J. Bearpark, J. J. Heyd, E. N. Brothers, K. N. Kudin, 
 V. N. Staroverov, T. A. Keith, R. Kobayashi, J. Normand, 
 K. Raghavachari, A. P. Rendell, J. C. Burant, S. S. Iyengar, 
 J. Tomasi, M. Cossi, J. M. Millam, M. Klene, C. Adamo, R. Cammi, 
 J. W. Ochterski, R. L. Martin, K. Morokuma, O. Farkas, 
 J. B. Foresman, and D. J. Fox, Gaussian, Inc., Wallingford CT, 2019.
 
 ******************************************
 Gaussian 16:  ES64L-G16RevC.01  3-Jul-2019
                23-Jan-2025 
 ******************************************
 %nprocshared=24
 Will use up to   24 processors via shared memory.
 %mem=24GB
 %chk=neutral.chk
 -------------------------------------------------------------------
 #p opt freq=noraman def2svp pbe1pbe em=gd3bj integral=ultrafinegrid
 -------------------------------------------------------------------
 1/18=20,19=15,26=4,38=1/1,3;
 2/9=110,12=2,17=6,18=5,40=1/2;
 3/5=43,7=101,11=2,25=1,30=1,71=1,74=-13,75=-5,124=41/1,2,3;
 4//1;
 5/5=2,38=5/2;
 6/7=2,8=2,9=2,10=2,28=1/1;
 7//1,2,3,16;
 1/18=20,19=15,26=4/3(2);
 2/9=110/2;
 99//99;
 2/9=110/2;
 3/5=43,7=101,11=2,25=1,30=1,71=1,74=-13,75=-5,124=41/1,2,3;
 4/5=5,16=3,69=1/1;
 5/5=2,38=5/2;
 7//1,2,3,16;
 1/18=20,19=15,26=4/3(-5);
 2/9=110/2;
 6/7=2,8=2,9=2,10=2,19=2,28=1/1;
 99/9=1/99;
 Leave Link    1 at Thu Jan 23 18:21:54 2025, MaxMem=  3221225472 cpu:               1.2 elap:               0.1
 (Enter /software/gaussian/G16-C.01/avx2/g16/l101.exe)
 -------
 neutral
 -------
 Symbolic Z-matrix:
 Charge =  0 Multiplicity = 1
 C                    -4.13939  -1.34132   2.20881 
 C                    -3.63145  -2.09961   1.21632 
 C                    -2.18325  -2.29125   1.00126 
 C                    -1.69908  -3.60931   1.09235 
 C                    -0.35156  -3.88314   0.87593 
 C                     0.51624  -2.8344    0.59832 
 C                     0.05238  -1.51608   0.4977 
 B                     1.12799  -0.36635   0.12256 
 C                     2.23374  -0.63252  -1.02486 
 C                     3.73926  -0.58428  -0.57696 
 C                     4.03211  -1.60619   0.51816 
 C                     4.5976   -0.88705  -1.81932 
 C                     4.12587   0.80436  -0.0706 
 C                     0.9807    1.07971   0.76731 
 C                     1.01488   2.21507  -0.06046 
 C                     0.84365   3.4812    0.53031 
 Br                    0.8557    5.01557  -0.59481 
 C                     0.6639    3.61185   1.9053 
 C                     0.65488   2.49264   2.70634 
 Br                    0.3994    2.67205   4.60934 
 C                     0.78865   1.21036   2.13865 
 C                    -1.3409   -1.2268    0.67616 
 C                    -1.90539   0.11959   0.3708 
 C                    -2.39827   0.92136   1.43493 
 C                    -2.50761   0.43753   2.77972 
 C                    -3.30117  -0.58779   3.15516 
 C                    -2.7303    2.23085   1.1685 
 C                    -2.65674   2.78631  -0.12263 
 C                    -2.27246   1.96041  -1.18302 
 C                    -2.21988   2.55683  -2.56795 
 C                    -1.87577   0.63479  -0.96279 
 N                    -1.44019  -0.20581  -2.06353 
 C                    -1.91239  -1.41696  -2.36911 
 C                    -1.22392  -1.89825  -3.4687 
 C                    -0.32911  -0.88525  -3.76814 
 N                    -0.47218   0.15609  -2.89223 
 H                    -5.2074   -1.37736   2.37 
 H                    -4.33347  -2.71168   0.67426 
 H                    -2.37074  -4.42392   1.33473 
 H                     0.00682  -4.86578   0.98066 
 H                     1.57352  -3.07356   0.4727 
 H                     2.05777   0.11061  -1.80266 
 H                     2.01967  -1.632    -1.46542 
 H                     3.83644  -2.66656   0.14335 
 H                     5.09551  -1.56836   0.81287 
 H                     3.43417  -1.45639   1.42007 
 H                     5.6962   -0.89432  -1.54099 
 H                     4.37874  -1.91729  -2.21151 
 H                     4.44089  -0.13807  -2.62287 
 H                     5.2092    0.89984   0.09911 
 H                     3.82849   1.61141  -0.79295 
 H                     3.6484    1.04189   0.91315 
 H                     1.15774   2.13774  -1.12943 
 H                     0.54711   4.5911    2.34352 
 H                     0.77638   0.33031   2.7997 
 H                    -2.03999   1.01043   3.61248 
 H                    -3.46148  -0.78845   4.204 
 H                    -3.07118   2.8897    1.98318 
 H                    -2.92838   3.81613  -0.27781 
 H                    -1.15962   2.80691  -2.81171 
 H                    -2.63094   1.83967  -3.32669 
 H                    -2.82446   3.48909  -2.62321 
 H                    -2.71079  -1.93257  -1.85978 
 H                    -1.36801  -2.83154  -3.96896 
 H                     0.3955   -0.89653  -4.57254 
 
 ITRead=  0  0  0  0  0  0  0  0  0  0  0  0  0  0  0  0  0  0  0  0
 ITRead=  0  0  0  0  0  0  0  0  0  0  0  0  0  0  0  0  0  0  0  0
 ITRead=  0  0  0  0  0  0  0  0  0  0  0  0  0  0  0  0  0  0  0  0
 ITRead=  0  0  0  0  0
 MicOpt= -1 -1 -1 -1 -1 -1 -1 -1 -1 -1 -1 -1 -1 -1 -1 -1 -1 -1 -1 -1
 MicOpt= -1 -1 -1 -1 -1 -1 -1 -1 -1 -1 -1 -1 -1 -1 -1 -1 -1 -1 -1 -1
 MicOpt= -1 -1 -1 -1 -1 -1 -1 -1 -1 -1 -1 -1 -1 -1 -1 -1 -1 -1 -1 -1
 MicOpt= -1 -1 -1 -1 -1
 NAtoms=     65 NQM=       65 NQMF=       0 NMMI=      0 NMMIF=      0
                NMic=       0 NMicF=      0.
                    Isotopes and Nuclear Properties:
 (Nuclear quadrupole moments (NQMom) in fm**2, nuclear magnetic moments (NMagM)
  in nuclear magnetons)

  Atom         1           2           3           4           5           6           7           8           9          10
 IAtWgt=          12          12          12          12          12          12          12          11          12          12
 AtmWgt=  12.0000000  12.0000000  12.0000000  12.0000000  12.0000000  12.0000000  12.0000000  11.0093053  12.0000000  12.0000000
 NucSpn=           0           0           0           0           0           0           0           3           0           0
 AtZEff=  -0.0000000  -0.0000000  -0.0000000  -0.0000000  -0.0000000  -0.0000000  -0.0000000  -0.0000000  -0.0000000  -0.0000000
 NQMom=    0.0000000   0.0000000   0.0000000   0.0000000   0.0000000   0.0000000   0.0000000   4.0590000   0.0000000   0.0000000
 NMagM=    0.0000000   0.0000000   0.0000000   0.0000000   0.0000000   0.0000000   0.0000000   2.6886370   0.0000000   0.0000000
 AtZNuc=   6.0000000   6.0000000   6.0000000   6.0000000   6.0000000   6.0000000   6.0000000   5.0000000   6.0000000   6.0000000

  Atom        11          12          13          14          15          16          17          18          19          20
 IAtWgt=          12          12          12          12          12          12          79          12          12          79
 AtmWgt=  12.0000000  12.0000000  12.0000000  12.0000000  12.0000000  12.0000000  78.9183361  12.0000000  12.0000000  78.9183361
 NucSpn=           0           0           0           0           0           0           3           0           0           3
 AtZEff=  -0.0000000  -0.0000000  -0.0000000  -0.0000000  -0.0000000  -0.0000000  -0.0000000  -0.0000000  -0.0000000  -0.0000000
 NQMom=    0.0000000   0.0000000   0.0000000   0.0000000   0.0000000   0.0000000  31.3000000   0.0000000   0.0000000  31.3000000
 NMagM=    0.0000000   0.0000000   0.0000000   0.0000000   0.0000000   0.0000000   2.1063990   0.0000000   0.0000000   2.1063990
 AtZNuc=   6.0000000   6.0000000   6.0000000   6.0000000   6.0000000   6.0000000  35.0000000   6.0000000   6.0000000  35.0000000

  Atom        21          22          23          24          25          26          27          28          29          30
 IAtWgt=          12          12          12          12          12          12          12          12          12          12
 AtmWgt=  12.0000000  12.0000000  12.0000000  12.0000000  12.0000000  12.0000000  12.0000000  12.0000000  12.0000000  12.0000000
 NucSpn=           0           0           0           0           0           0           0           0           0           0
 AtZEff=  -0.0000000  -0.0000000  -0.0000000  -0.0000000  -0.0000000  -0.0000000  -0.0000000  -0.0000000  -0.0000000  -0.0000000
 NQMom=    0.0000000   0.0000000   0.0000000   0.0000000   0.0000000   0.0000000   0.0000000   0.0000000   0.0000000   0.0000000
 NMagM=    0.0000000   0.0000000   0.0000000   0.0000000   0.0000000   0.0000000   0.0000000   0.0000000   0.0000000   0.0000000
 AtZNuc=   6.0000000   6.0000000   6.0000000   6.0000000   6.0000000   6.0000000   6.0000000   6.0000000   6.0000000   6.0000000

  Atom        31          32          33          34          35          36          37          38          39          40
 IAtWgt=          12          14          12          12          12          14           1           1           1           1
 AtmWgt=  12.0000000  14.0030740  12.0000000  12.0000000  12.0000000  14.0030740   1.0078250   1.0078250   1.0078250   1.0078250
 NucSpn=           0           2           0           0           0           2           1           1           1           1
 AtZEff=  -0.0000000  -0.0000000  -0.0000000  -0.0000000  -0.0000000  -0.0000000  -0.0000000  -0.0000000  -0.0000000  -0.0000000
 NQMom=    0.0000000   2.0440000   0.0000000   0.0000000   0.0000000   2.0440000   0.0000000   0.0000000   0.0000000   0.0000000
 NMagM=    0.0000000   0.4037610   0.0000000   0.0000000   0.0000000   0.4037610   2.7928460   2.7928460   2.7928460   2.7928460
 AtZNuc=   6.0000000   7.0000000   6.0000000   6.0000000   6.0000000   7.0000000   1.0000000   1.0000000   1.0000000   1.0000000

  Atom        41          42          43          44          45          46          47          48          49          50
 IAtWgt=           1           1           1           1           1           1           1           1           1           1
 AtmWgt=   1.0078250   1.0078250   1.0078250   1.0078250   1.0078250   1.0078250   1.0078250   1.0078250   1.0078250   1.0078250
 NucSpn=           1           1           1           1           1           1           1           1           1           1
 AtZEff=  -0.0000000  -0.0000000  -0.0000000  -0.0000000  -0.0000000  -0.0000000  -0.0000000  -0.0000000  -0.0000000  -0.0000000
 NQMom=    0.0000000   0.0000000   0.0000000   0.0000000   0.0000000   0.0000000   0.0000000   0.0000000   0.0000000   0.0000000
 NMagM=    2.7928460   2.7928460   2.7928460   2.7928460   2.7928460   2.7928460   2.7928460   2.7928460   2.7928460   2.7928460
 AtZNuc=   1.0000000   1.0000000   1.0000000   1.0000000   1.0000000   1.0000000   1.0000000   1.0000000   1.0000000   1.0000000

  Atom        51          52          53          54          55          56          57          58          59          60
 IAtWgt=           1           1           1           1           1           1           1           1           1           1
 AtmWgt=   1.0078250   1.0078250   1.0078250   1.0078250   1.0078250   1.0078250   1.0078250   1.0078250   1.0078250   1.0078250
 NucSpn=           1           1           1           1           1           1           1           1           1           1
 AtZEff=  -0.0000000  -0.0000000  -0.0000000  -0.0000000  -0.0000000  -0.0000000  -0.0000000  -0.0000000  -0.0000000  -0.0000000
 NQMom=    0.0000000   0.0000000   0.0000000   0.0000000   0.0000000   0.0000000   0.0000000   0.0000000   0.0000000   0.0000000
 NMagM=    2.7928460   2.7928460   2.7928460   2.7928460   2.7928460   2.7928460   2.7928460   2.7928460   2.7928460   2.7928460
 AtZNuc=   1.0000000   1.0000000   1.0000000   1.0000000   1.0000000   1.0000000   1.0000000   1.0000000   1.0000000   1.0000000

  Atom        61          62          63          64          65
 IAtWgt=           1           1           1           1           1
 AtmWgt=   1.0078250   1.0078250   1.0078250   1.0078250   1.0078250
 NucSpn=           1           1           1           1           1
 AtZEff=  -0.0000000  -0.0000000  -0.0000000  -0.0000000  -0.0000000
 NQMom=    0.0000000   0.0000000   0.0000000   0.0000000   0.0000000
 NMagM=    2.7928460   2.7928460   2.7928460   2.7928460   2.7928460
 AtZNuc=   1.0000000   1.0000000   1.0000000   1.0000000   1.0000000
 Leave Link  101 at Thu Jan 23 18:21:55 2025, MaxMem=  3221225472 cpu:              16.8 elap:               0.7
 (Enter /software/gaussian/G16-C.01/avx2/g16/l103.exe)

 GradGradGradGradGradGradGradGradGradGradGradGradGradGradGradGradGradGrad
 Berny optimization.
 Initialization pass.
                           ----------------------------
                           !    Initial Parameters    !
                           ! (Angstroms and Degrees)  !
 --------------------------                            --------------------------
 ! Name  Definition              Value          Derivative Info.                !
 --------------------------------------------------------------------------------
 ! R1    R(1,2)                  1.3483         estimate D2E/DX2                !
 ! R2    R(1,26)                 1.4717         estimate D2E/DX2                !
 ! R3    R(1,37)                 1.0807         estimate D2E/DX2                !
 ! R4    R(2,3)                  1.4766         estimate D2E/DX2                !
 ! R5    R(2,38)                 1.0776         estimate D2E/DX2                !
 ! R6    R(3,4)                  1.4071         estimate D2E/DX2                !
 ! R7    R(3,22)                 1.3958         estimate D2E/DX2                !
 ! R8    R(4,5)                  1.392          estimate D2E/DX2                !
 ! R9    R(4,39)                 1.0833         estimate D2E/DX2                !
 ! R10   R(5,6)                  1.3892         estimate D2E/DX2                !
 ! R11   R(5,40)                 1.0512         estimate D2E/DX2                !
 ! R12   R(6,7)                  1.4012         estimate D2E/DX2                !
 ! R13   R(6,41)                 1.0912         estimate D2E/DX2                !
 ! R14   R(7,8)                  1.6185         estimate D2E/DX2                !
 ! R15   R(7,22)                 1.4341         estimate D2E/DX2                !
 ! R16   R(8,9)                  1.6156         estimate D2E/DX2                !
 ! R17   R(8,14)                 1.5901         estimate D2E/DX2                !
 ! R18   R(9,10)                 1.5715         estimate D2E/DX2                !
 ! R19   R(9,42)                 1.09           estimate D2E/DX2                !
 ! R20   R(9,43)                 1.113          estimate D2E/DX2                !
 ! R21   R(10,11)                1.5262         estimate D2E/DX2                !
 ! R22   R(10,12)                1.5401         estimate D2E/DX2                !
 ! R23   R(10,13)                1.5278         estimate D2E/DX2                !
 ! R24   R(11,44)                1.1416         estimate D2E/DX2                !
 ! R25   R(11,45)                1.1041         estimate D2E/DX2                !
 ! R26   R(11,46)                1.0924         estimate D2E/DX2                !
 ! R27   R(12,47)                1.1333         estimate D2E/DX2                !
 ! R28   R(12,48)                1.1239         estimate D2E/DX2                !
 ! R29   R(12,49)                1.1096         estimate D2E/DX2                !
 ! R30   R(13,50)                1.1007         estimate D2E/DX2                !
 ! R31   R(13,51)                1.1232         estimate D2E/DX2                !
 ! R32   R(13,52)                1.119          estimate D2E/DX2                !
 ! R33   R(14,15)                1.4055         estimate D2E/DX2                !
 ! R34   R(14,21)                1.3909         estimate D2E/DX2                !
 ! R35   R(15,16)                1.4076         estimate D2E/DX2                !
 ! R36   R(15,53)                1.0812         estimate D2E/DX2                !
 ! R37   R(16,17)                1.9027         estimate D2E/DX2                !
 ! R38   R(16,18)                1.3928         estimate D2E/DX2                !
 ! R39   R(18,19)                1.3764         estimate D2E/DX2                !
 ! R40   R(18,54)                1.0792         estimate D2E/DX2                !
 ! R41   R(19,20)                1.9284         estimate D2E/DX2                !
 ! R42   R(19,21)                1.4087         estimate D2E/DX2                !
 ! R43   R(21,55)                1.1007         estimate D2E/DX2                !
 ! R44   R(22,23)                1.4915         estimate D2E/DX2                !
 ! R45   R(23,24)                1.4206         estimate D2E/DX2                !
 ! R46   R(23,31)                1.43           estimate D2E/DX2                !
 ! R47   R(24,25)                1.4334         estimate D2E/DX2                !
 ! R48   R(24,27)                1.377          estimate D2E/DX2                !
 ! R49   R(25,26)                1.3498         estimate D2E/DX2                !
 ! R50   R(25,56)                1.1137         estimate D2E/DX2                !
 ! R51   R(26,57)                1.0798         estimate D2E/DX2                !
 ! R52   R(27,28)                1.4075         estimate D2E/DX2                !
 ! R53   R(27,58)                1.1018         estimate D2E/DX2                !
 ! R54   R(28,29)                1.3979         estimate D2E/DX2                !
 ! R55   R(28,59)                1.0763         estimate D2E/DX2                !
 ! R56   R(29,30)                1.5088         estimate D2E/DX2                !
 ! R57   R(29,31)                1.4011         estimate D2E/DX2                !
 ! R58   R(30,60)                1.1163         estimate D2E/DX2                !
 ! R59   R(30,61)                1.122          estimate D2E/DX2                !
 ! R60   R(30,62)                1.1125         estimate D2E/DX2                !
 ! R61   R(31,32)                1.4519         estimate D2E/DX2                !
 ! R62   R(32,33)                1.3354         estimate D2E/DX2                !
 ! R63   R(32,36)                1.3247         estimate D2E/DX2                !
 ! R64   R(33,34)                1.3837         estimate D2E/DX2                !
 ! R65   R(33,63)                1.0783         estimate D2E/DX2                !
 ! R66   R(34,35)                1.3844         estimate D2E/DX2                !
 ! R67   R(34,64)                1.0687         estimate D2E/DX2                !
 ! R68   R(35,36)                1.3682         estimate D2E/DX2                !
 ! R69   R(35,65)                1.0827         estimate D2E/DX2                !
 ! A1    A(2,1,26)             123.1409         estimate D2E/DX2                !
 ! A2    A(2,1,37)             117.6013         estimate D2E/DX2                !
 ! A3    A(26,1,37)            118.9486         estimate D2E/DX2                !
 ! A4    A(1,2,3)              123.3446         estimate D2E/DX2                !
 ! A5    A(1,2,38)             116.3769         estimate D2E/DX2                !
 ! A6    A(3,2,38)             119.4685         estimate D2E/DX2                !
 ! A7    A(2,3,4)              116.7191         estimate D2E/DX2                !
 ! A8    A(2,3,22)             121.7921         estimate D2E/DX2                !
 ! A9    A(4,3,22)             121.4503         estimate D2E/DX2                !
 ! A10   A(3,4,5)              120.4836         estimate D2E/DX2                !
 ! A11   A(3,4,39)             120.3671         estimate D2E/DX2                !
 ! A12   A(5,4,39)             119.1491         estimate D2E/DX2                !
 ! A13   A(4,5,6)              119.1609         estimate D2E/DX2                !
 ! A14   A(4,5,40)             119.8967         estimate D2E/DX2                !
 ! A15   A(6,5,40)             120.8389         estimate D2E/DX2                !
 ! A16   A(5,6,7)              121.1865         estimate D2E/DX2                !
 ! A17   A(5,6,41)             117.5656         estimate D2E/DX2                !
 ! A18   A(7,6,41)             121.2445         estimate D2E/DX2                !
 ! A19   A(6,7,8)              117.7102         estimate D2E/DX2                !
 ! A20   A(6,7,22)             120.1636         estimate D2E/DX2                !
 ! A21   A(8,7,22)             122.086          estimate D2E/DX2                !
 ! A22   A(7,8,9)              120.1611         estimate D2E/DX2                !
 ! A23   A(7,8,14)             119.3714         estimate D2E/DX2                !
 ! A24   A(9,8,14)             120.0794         estimate D2E/DX2                !
 ! A25   A(8,9,10)             116.6294         estimate D2E/DX2                !
 ! A26   A(8,9,42)             106.4977         estimate D2E/DX2                !
 ! A27   A(8,9,43)             107.303          estimate D2E/DX2                !
 ! A28   A(10,9,42)            109.7006         estimate D2E/DX2                !
 ! A29   A(10,9,43)            108.9433         estimate D2E/DX2                !
 ! A30   A(42,9,43)            107.3798         estimate D2E/DX2                !
 ! A31   A(9,10,11)            111.5794         estimate D2E/DX2                !
 ! A32   A(9,10,12)            107.3367         estimate D2E/DX2                !
 ! A33   A(9,10,13)            111.395          estimate D2E/DX2                !
 ! A34   A(11,10,12)           109.8923         estimate D2E/DX2                !
 ! A35   A(11,10,13)           108.7965         estimate D2E/DX2                !
 ! A36   A(12,10,13)           107.7584         estimate D2E/DX2                !
 ! A37   A(10,11,44)           110.6999         estimate D2E/DX2                !
 ! A38   A(10,11,45)           110.695          estimate D2E/DX2                !
 ! A39   A(10,11,46)           113.3006         estimate D2E/DX2                !
 ! A40   A(44,11,45)           106.5315         estimate D2E/DX2                !
 ! A41   A(44,11,46)           107.7349         estimate D2E/DX2                !
 ! A42   A(45,11,46)           107.5833         estimate D2E/DX2                !
 ! A43   A(10,12,47)           110.0844         estimate D2E/DX2                !
 ! A44   A(10,12,48)           110.6816         estimate D2E/DX2                !
 ! A45   A(10,12,49)           111.8863         estimate D2E/DX2                !
 ! A46   A(47,12,48)           105.5801         estimate D2E/DX2                !
 ! A47   A(47,12,49)           108.6076         estimate D2E/DX2                !
 ! A48   A(48,12,49)           109.7884         estimate D2E/DX2                !
 ! A49   A(10,13,50)           112.2725         estimate D2E/DX2                !
 ! A50   A(10,13,51)           111.8967         estimate D2E/DX2                !
 ! A51   A(10,13,52)           112.1067         estimate D2E/DX2                !
 ! A52   A(50,13,51)           107.3023         estimate D2E/DX2                !
 ! A53   A(50,13,52)           105.4264         estimate D2E/DX2                !
 ! A54   A(51,13,52)           107.451          estimate D2E/DX2                !
 ! A55   A(8,14,15)            119.5745         estimate D2E/DX2                !
 ! A56   A(8,14,21)            119.8671         estimate D2E/DX2                !
 ! A57   A(15,14,21)           120.5417         estimate D2E/DX2                !
 ! A58   A(14,15,16)           118.4545         estimate D2E/DX2                !
 ! A59   A(14,15,53)           121.851          estimate D2E/DX2                !
 ! A60   A(16,15,53)           119.6914         estimate D2E/DX2                !
 ! A61   A(15,16,17)           118.4511         estimate D2E/DX2                !
 ! A62   A(15,16,18)           120.9567         estimate D2E/DX2                !
 ! A63   A(17,16,18)           120.5916         estimate D2E/DX2                !
 ! A64   A(16,18,19)           119.941          estimate D2E/DX2                !
 ! A65   A(16,18,54)           119.9973         estimate D2E/DX2                !
 ! A66   A(19,18,54)           120.0549         estimate D2E/DX2                !
 ! A67   A(18,19,20)           119.9693         estimate D2E/DX2                !
 ! A68   A(18,19,21)           120.3334         estimate D2E/DX2                !
 ! A69   A(20,19,21)           119.6661         estimate D2E/DX2                !
 ! A70   A(14,21,19)           119.7323         estimate D2E/DX2                !
 ! A71   A(14,21,55)           121.2358         estimate D2E/DX2                !
 ! A72   A(19,21,55)           118.9917         estimate D2E/DX2                !
 ! A73   A(3,22,7)             117.4807         estimate D2E/DX2                !
 ! A74   A(3,22,23)            120.5093         estimate D2E/DX2                !
 ! A75   A(7,22,23)            121.6203         estimate D2E/DX2                !
 ! A76   A(22,23,24)           119.1714         estimate D2E/DX2                !
 ! A77   A(22,23,31)           120.552          estimate D2E/DX2                !
 ! A78   A(24,23,31)           120.1607         estimate D2E/DX2                !
 ! A79   A(23,24,25)           122.5979         estimate D2E/DX2                !
 ! A80   A(23,24,27)           118.3894         estimate D2E/DX2                !
 ! A81   A(25,24,27)           118.9568         estimate D2E/DX2                !
 ! A82   A(24,25,26)           124.2087         estimate D2E/DX2                !
 ! A83   A(24,25,56)           119.7262         estimate D2E/DX2                !
 ! A84   A(26,25,56)           115.4434         estimate D2E/DX2                !
 ! A85   A(1,26,25)            123.0186         estimate D2E/DX2                !
 ! A86   A(1,26,57)            116.4146         estimate D2E/DX2                !
 ! A87   A(25,26,57)           119.9072         estimate D2E/DX2                !
 ! A88   A(24,27,28)           122.6981         estimate D2E/DX2                !
 ! A89   A(24,27,58)           120.0142         estimate D2E/DX2                !
 ! A90   A(28,27,58)           117.2877         estimate D2E/DX2                !
 ! A91   A(27,28,29)           118.4928         estimate D2E/DX2                !
 ! A92   A(27,28,59)           119.7809         estimate D2E/DX2                !
 ! A93   A(29,28,59)           121.689          estimate D2E/DX2                !
 ! A94   A(28,29,30)           118.1842         estimate D2E/DX2                !
 ! A95   A(28,29,31)           121.169          estimate D2E/DX2                !
 ! A96   A(30,29,31)           120.5573         estimate D2E/DX2                !
 ! A97   A(29,30,60)           108.7898         estimate D2E/DX2                !
 ! A98   A(29,30,61)           110.8107         estimate D2E/DX2                !
 ! A99   A(29,30,62)           110.9714         estimate D2E/DX2                !
 ! A100  A(60,30,61)           110.0895         estimate D2E/DX2                !
 ! A101  A(60,30,62)           108.5162         estimate D2E/DX2                !
 ! A102  A(61,30,62)           107.6329         estimate D2E/DX2                !
 ! A103  A(23,31,29)           118.7903         estimate D2E/DX2                !
 ! A104  A(23,31,32)           120.3095         estimate D2E/DX2                !
 ! A105  A(29,31,32)           120.9002         estimate D2E/DX2                !
 ! A106  A(31,32,33)           126.3359         estimate D2E/DX2                !
 ! A107  A(31,32,36)           122.367          estimate D2E/DX2                !
 ! A108  A(33,32,36)           111.2865         estimate D2E/DX2                !
 ! A109  A(32,33,34)           108.7457         estimate D2E/DX2                !
 ! A110  A(32,33,63)           125.9745         estimate D2E/DX2                !
 ! A111  A(34,33,63)           125.27           estimate D2E/DX2                !
 ! A112  A(33,34,35)           103.8255         estimate D2E/DX2                !
 ! A113  A(33,34,64)           127.4928         estimate D2E/DX2                !
 ! A114  A(35,34,64)           128.6773         estimate D2E/DX2                !
 ! A115  A(34,35,36)           110.5394         estimate D2E/DX2                !
 ! A116  A(34,35,65)           125.8497         estimate D2E/DX2                !
 ! A117  A(36,35,65)           123.6095         estimate D2E/DX2                !
 ! A118  A(32,36,35)           105.6028         estimate D2E/DX2                !
 ! D1    D(26,1,2,3)             2.1357         estimate D2E/DX2                !
 ! D2    D(26,1,2,38)          171.7516         estimate D2E/DX2                !
 ! D3    D(37,1,2,3)          -171.4014         estimate D2E/DX2                !
 ! D4    D(37,1,2,38)           -1.7855         estimate D2E/DX2                !
 ! D5    D(2,1,26,25)           64.982          estimate D2E/DX2                !
 ! D6    D(2,1,26,57)         -124.3531         estimate D2E/DX2                !
 ! D7    D(37,1,26,25)        -121.5636         estimate D2E/DX2                !
 ! D8    D(37,1,26,57)          49.1013         estimate D2E/DX2                !
 ! D9    D(1,2,3,4)            118.9878         estimate D2E/DX2                !
 ! D10   D(1,2,3,22)           -63.242          estimate D2E/DX2                !
 ! D11   D(38,2,3,4)           -50.3233         estimate D2E/DX2                !
 ! D12   D(38,2,3,22)          127.4469         estimate D2E/DX2                !
 ! D13   D(2,3,4,5)            178.6577         estimate D2E/DX2                !
 ! D14   D(2,3,4,39)            -1.5124         estimate D2E/DX2                !
 ! D15   D(22,3,4,5)             0.8793         estimate D2E/DX2                !
 ! D16   D(22,3,4,39)         -179.2908         estimate D2E/DX2                !
 ! D17   D(2,3,22,7)           179.5356         estimate D2E/DX2                !
 ! D18   D(2,3,22,23)           -7.5148         estimate D2E/DX2                !
 ! D19   D(4,3,22,7)            -2.7991         estimate D2E/DX2                !
 ! D20   D(4,3,22,23)          170.1505         estimate D2E/DX2                !
 ! D21   D(3,4,5,6)              1.4422         estimate D2E/DX2                !
 ! D22   D(3,4,5,40)           177.775          estimate D2E/DX2                !
 ! D23   D(39,4,5,6)          -178.3898         estimate D2E/DX2                !
 ! D24   D(39,4,5,40)           -2.057          estimate D2E/DX2                !
 ! D25   D(4,5,6,7)             -1.7292         estimate D2E/DX2                !
 ! D26   D(4,5,6,41)           177.6001         estimate D2E/DX2                !
 ! D27   D(40,5,6,7)          -178.0265         estimate D2E/DX2                !
 ! D28   D(40,5,6,41)            1.3028         estimate D2E/DX2                !
 ! D29   D(5,6,7,8)           -178.0048         estimate D2E/DX2                !
 ! D30   D(5,6,7,22)            -0.2606         estimate D2E/DX2                !
 ! D31   D(41,6,7,8)             2.6907         estimate D2E/DX2                !
 ! D32   D(41,6,7,22)         -179.5651         estimate D2E/DX2                !
 ! D33   D(6,7,8,9)             42.5143         estimate D2E/DX2                !
 ! D34   D(6,7,8,14)          -144.6297         estimate D2E/DX2                !
 ! D35   D(22,7,8,9)          -135.1837         estimate D2E/DX2                !
 ! D36   D(22,7,8,14)           37.6723         estimate D2E/DX2                !
 ! D37   D(6,7,22,3)             2.4904         estimate D2E/DX2                !
 ! D38   D(6,7,22,23)         -170.3759         estimate D2E/DX2                !
 ! D39   D(8,7,22,3)          -179.8668         estimate D2E/DX2                !
 ! D40   D(8,7,22,23)            7.2669         estimate D2E/DX2                !
 ! D41   D(7,8,9,10)          -118.3675         estimate D2E/DX2                !
 ! D42   D(7,8,9,42)           118.8264         estimate D2E/DX2                !
 ! D43   D(7,8,9,43)             4.0827         estimate D2E/DX2                !
 ! D44   D(14,8,9,10)           68.8274         estimate D2E/DX2                !
 ! D45   D(14,8,9,42)          -53.9788         estimate D2E/DX2                !
 ! D46   D(14,8,9,43)         -168.7224         estimate D2E/DX2                !
 ! D47   D(7,8,14,15)         -129.729          estimate D2E/DX2                !
 ! D48   D(7,8,14,21)           48.7969         estimate D2E/DX2                !
 ! D49   D(9,8,14,15)           43.133          estimate D2E/DX2                !
 ! D50   D(9,8,14,21)         -138.3412         estimate D2E/DX2                !
 ! D51   D(8,9,10,11)           58.6227         estimate D2E/DX2                !
 ! D52   D(8,9,10,12)          179.0722         estimate D2E/DX2                !
 ! D53   D(8,9,10,13)          -63.1869         estimate D2E/DX2                !
 ! D54   D(42,9,10,11)         179.7512         estimate D2E/DX2                !
 ! D55   D(42,9,10,12)         -59.7993         estimate D2E/DX2                !
 ! D56   D(42,9,10,13)          57.9416         estimate D2E/DX2                !
 ! D57   D(43,9,10,11)         -62.9689         estimate D2E/DX2                !
 ! D58   D(43,9,10,12)          57.4806         estimate D2E/DX2                !
 ! D59   D(43,9,10,13)         175.2214         estimate D2E/DX2                !
 ! D60   D(9,10,11,44)          61.4068         estimate D2E/DX2                !
 ! D61   D(9,10,11,45)         179.3053         estimate D2E/DX2                !
 ! D62   D(9,10,11,46)         -59.7438         estimate D2E/DX2                !
 ! D63   D(12,10,11,44)        -57.5331         estimate D2E/DX2                !
 ! D64   D(12,10,11,45)         60.3655         estimate D2E/DX2                !
 ! D65   D(12,10,11,46)       -178.6837         estimate D2E/DX2                !
 ! D66   D(13,10,11,44)       -175.2942         estimate D2E/DX2                !
 ! D67   D(13,10,11,45)        -57.3957         estimate D2E/DX2                !
 ! D68   D(13,10,11,46)         63.5552         estimate D2E/DX2                !
 ! D69   D(9,10,12,47)        -178.3303         estimate D2E/DX2                !
 ! D70   D(9,10,12,48)         -61.9898         estimate D2E/DX2                !
 ! D71   D(9,10,12,49)          60.8045         estimate D2E/DX2                !
 ! D72   D(11,10,12,47)        -56.817          estimate D2E/DX2                !
 ! D73   D(11,10,12,48)         59.5235         estimate D2E/DX2                !
 ! D74   D(11,10,12,49)       -177.6822         estimate D2E/DX2                !
 ! D75   D(13,10,12,47)         61.5868         estimate D2E/DX2                !
 ! D76   D(13,10,12,48)        177.9273         estimate D2E/DX2                !
 ! D77   D(13,10,12,49)        -59.2784         estimate D2E/DX2                !
 ! D78   D(9,10,13,50)        -171.1078         estimate D2E/DX2                !
 ! D79   D(9,10,13,51)         -50.3775         estimate D2E/DX2                !
 ! D80   D(9,10,13,52)          70.4273         estimate D2E/DX2                !
 ! D81   D(11,10,13,50)         65.4829         estimate D2E/DX2                !
 ! D82   D(11,10,13,51)       -173.7868         estimate D2E/DX2                !
 ! D83   D(11,10,13,52)        -52.9819         estimate D2E/DX2                !
 ! D84   D(12,10,13,50)        -53.6219         estimate D2E/DX2                !
 ! D85   D(12,10,13,51)         67.1084         estimate D2E/DX2                !
 ! D86   D(12,10,13,52)       -172.0868         estimate D2E/DX2                !
 ! D87   D(8,14,15,16)         178.1932         estimate D2E/DX2                !
 ! D88   D(8,14,15,53)          -1.1637         estimate D2E/DX2                !
 ! D89   D(21,14,15,16)         -0.3225         estimate D2E/DX2                !
 ! D90   D(21,14,15,53)       -179.6794         estimate D2E/DX2                !
 ! D91   D(8,14,21,19)        -179.8278         estimate D2E/DX2                !
 ! D92   D(8,14,21,55)           2.5013         estimate D2E/DX2                !
 ! D93   D(15,14,21,19)         -1.3164         estimate D2E/DX2                !
 ! D94   D(15,14,21,55)       -178.9873         estimate D2E/DX2                !
 ! D95   D(14,15,16,17)       -178.8145         estimate D2E/DX2                !
 ! D96   D(14,15,16,18)          0.9306         estimate D2E/DX2                !
 ! D97   D(53,15,16,17)          0.5567         estimate D2E/DX2                !
 ! D98   D(53,15,16,18)       -179.6982         estimate D2E/DX2                !
 ! D99   D(15,16,18,19)          0.1344         estimate D2E/DX2                !
 ! D100  D(15,16,18,54)        179.1908         estimate D2E/DX2                !
 ! D101  D(17,16,18,19)        179.874          estimate D2E/DX2                !
 ! D102  D(17,16,18,54)         -1.0696         estimate D2E/DX2                !
 ! D103  D(16,18,19,20)       -179.7686         estimate D2E/DX2                !
 ! D104  D(16,18,19,21)         -1.8079         estimate D2E/DX2                !
 ! D105  D(54,18,19,20)          1.1756         estimate D2E/DX2                !
 ! D106  D(54,18,19,21)        179.1363         estimate D2E/DX2                !
 ! D107  D(18,19,21,14)          2.4036         estimate D2E/DX2                !
 ! D108  D(18,19,21,55)       -179.8731         estimate D2E/DX2                !
 ! D109  D(20,19,21,14)       -179.6295         estimate D2E/DX2                !
 ! D110  D(20,19,21,55)         -1.9062         estimate D2E/DX2                !
 ! D111  D(3,22,23,24)          74.5105         estimate D2E/DX2                !
 ! D112  D(3,22,23,31)        -109.3977         estimate D2E/DX2                !
 ! D113  D(7,22,23,24)        -112.8364         estimate D2E/DX2                !
 ! D114  D(7,22,23,31)          63.2554         estimate D2E/DX2                !
 ! D115  D(22,23,24,25)         -6.7628         estimate D2E/DX2                !
 ! D116  D(22,23,24,27)        170.4859         estimate D2E/DX2                !
 ! D117  D(31,23,24,25)        177.1297         estimate D2E/DX2                !
 ! D118  D(31,23,24,27)         -5.6216         estimate D2E/DX2                !
 ! D119  D(22,23,31,29)       -172.6837         estimate D2E/DX2                !
 ! D120  D(22,23,31,32)          7.2584         estimate D2E/DX2                !
 ! D121  D(24,23,31,29)          3.3694         estimate D2E/DX2                !
 ! D122  D(24,23,31,32)       -176.6884         estimate D2E/DX2                !
 ! D123  D(23,24,25,26)        -62.7255         estimate D2E/DX2                !
 ! D124  D(23,24,25,56)        126.7365         estimate D2E/DX2                !
 ! D125  D(27,24,25,26)        120.0407         estimate D2E/DX2                !
 ! D126  D(27,24,25,56)        -50.4973         estimate D2E/DX2                !
 ! D127  D(23,24,27,28)          2.8737         estimate D2E/DX2                !
 ! D128  D(23,24,27,58)       -177.1922         estimate D2E/DX2                !
 ! D129  D(25,24,27,28)       -179.7753         estimate D2E/DX2                !
 ! D130  D(25,24,27,58)          0.1588         estimate D2E/DX2                !
 ! D131  D(24,25,26,1)           0.7819         estimate D2E/DX2                !
 ! D132  D(24,25,26,57)       -169.5703         estimate D2E/DX2                !
 ! D133  D(56,25,26,1)         171.6856         estimate D2E/DX2                !
 ! D134  D(56,25,26,57)          1.3334         estimate D2E/DX2                !
 ! D135  D(24,27,28,29)          2.1486         estimate D2E/DX2                !
 ! D136  D(24,27,28,59)        179.9634         estimate D2E/DX2                !
 ! D137  D(58,27,28,29)       -177.7872         estimate D2E/DX2                !
 ! D138  D(58,27,28,59)          0.0275         estimate D2E/DX2                !
 ! D139  D(27,28,29,30)        178.9203         estimate D2E/DX2                !
 ! D140  D(27,28,29,31)         -4.5024         estimate D2E/DX2                !
 ! D141  D(59,28,29,30)          1.1493         estimate D2E/DX2                !
 ! D142  D(59,28,29,31)        177.7266         estimate D2E/DX2                !
 ! D143  D(28,29,30,60)         99.815          estimate D2E/DX2                !
 ! D144  D(28,29,30,61)       -139.023          estimate D2E/DX2                !
 ! D145  D(28,29,30,62)        -19.5029         estimate D2E/DX2                !
 ! D146  D(31,29,30,60)        -76.7841         estimate D2E/DX2                !
 ! D147  D(31,29,30,61)         44.378          estimate D2E/DX2                !
 ! D148  D(31,29,30,62)        163.898          estimate D2E/DX2                !
 ! D149  D(28,29,31,23)          1.7713         estimate D2E/DX2                !
 ! D150  D(28,29,31,32)       -178.1705         estimate D2E/DX2                !
 ! D151  D(30,29,31,23)        178.2677         estimate D2E/DX2                !
 ! D152  D(30,29,31,32)         -1.6741         estimate D2E/DX2                !
 ! D153  D(23,31,32,33)         52.8778         estimate D2E/DX2                !
 ! D154  D(23,31,32,36)       -125.8274         estimate D2E/DX2                !
 ! D155  D(29,31,32,33)       -127.1813         estimate D2E/DX2                !
 ! D156  D(29,31,32,36)         54.1135         estimate D2E/DX2                !
 ! D157  D(31,32,33,34)       -178.9166         estimate D2E/DX2                !
 ! D158  D(31,32,33,63)          2.1787         estimate D2E/DX2                !
 ! D159  D(36,32,33,34)         -0.0903         estimate D2E/DX2                !
 ! D160  D(36,32,33,63)       -178.995          estimate D2E/DX2                !
 ! D161  D(31,32,36,35)        178.9415         estimate D2E/DX2                !
 ! D162  D(33,32,36,35)          0.0609         estimate D2E/DX2                !
 ! D163  D(32,33,34,35)          0.0784         estimate D2E/DX2                !
 ! D164  D(32,33,34,64)       -179.204          estimate D2E/DX2                !
 ! D165  D(63,33,34,35)        178.9928         estimate D2E/DX2                !
 ! D166  D(63,33,34,64)         -0.2897         estimate D2E/DX2                !
 ! D167  D(33,34,35,36)         -0.0426         estimate D2E/DX2                !
 ! D168  D(33,34,35,65)        179.5473         estimate D2E/DX2                !
 ! D169  D(64,34,35,36)        179.2281         estimate D2E/DX2                !
 ! D170  D(64,34,35,65)         -1.182          estimate D2E/DX2                !
 ! D171  D(34,35,36,32)         -0.009          estimate D2E/DX2                !
 ! D172  D(65,35,36,32)       -179.6098         estimate D2E/DX2                !
 --------------------------------------------------------------------------------
 Trust Radius=3.00D-01 FncErr=1.00D-07 GrdErr=1.00D-06 EigMax=2.50D+02 EigMin=1.00D-04
 Number of steps in this run=    369 maximum allowed number of steps=    390.
 GradGradGradGradGradGradGradGradGradGradGradGradGradGradGradGradGradGrad

 Leave Link  103 at Thu Jan 23 18:21:55 2025, MaxMem=  3221225472 cpu:               0.8 elap:               0.0
 (Enter /software/gaussian/G16-C.01/avx2/g16/l202.exe)
 Stoichiometry    C31H29BBr2N2
 Framework group  C1[X(C31H29BBr2N2)]
 Deg. of freedom   189
 Full point group                 C1      NOp   1
 Largest Abelian subgroup         C1      NOp   1
 Largest concise Abelian subgroup C1      NOp   1
                         Standard orientation:                         
 ---------------------------------------------------------------------
 Center     Atomic      Atomic             Coordinates (Angstroms)
 Number     Number       Type             X           Y           Z
 ---------------------------------------------------------------------
      1          6           0       -2.365189    4.224661   -0.687357
      2          6           0       -3.273630    3.231957   -0.601906
      3          6           0       -3.142349    2.089101    0.323788
      4          6           0       -4.155890    1.936110    1.287814
      5          6           0       -4.124875    0.869668    2.181897
      6          6           0       -3.064097   -0.025950    2.130734
      7          6           0       -2.048508    0.106099    1.174501
      8          5           0       -0.878992   -1.012635    1.159339
      9          6           0       -1.248570   -2.575689    1.333575
     10          6           0       -0.643636   -3.307146    2.585995
     11          6           0       -1.072931   -2.637717    3.888640
     12          6           0       -1.146053   -4.762643    2.554444
     13          6           0        0.882759   -3.339729    2.529016
     14          6           0        0.609037   -0.580534    0.802181
     15          6           0        1.324293   -1.296842   -0.172864
     16          6           0        2.625720   -0.870413   -0.498215
     17         35           0        3.580993   -1.819318   -1.842606
     18          6           0        3.202466    0.223434    0.142748
     19          6           0        2.498351    0.901740    1.111516
     20         35           0        3.293543    2.420426    1.994762
     21          6           0        1.181183    0.519258    1.432742
     22          6           0       -2.091817    1.175880    0.220328
     23          6           0       -1.153295    1.229339   -0.937676
     24          6           0       -0.175689    2.258754   -0.989706
     25          6           0       -0.139197    3.337430   -0.046489
     26          6           0       -1.123418    4.249103    0.102206
     27          6           0        0.805547    2.181706   -1.952636
     28          6           0        0.843287    1.159734   -2.919654
     29          6           0       -0.183054    0.210644   -2.927311
     30          6           0       -0.148977   -0.867320   -3.982450
     31          6           0       -1.178690    0.211253   -1.941487
     32          7           0       -2.219528   -0.800949   -1.932349
     33          6           0       -3.536151   -0.581646   -1.891880
     34          6           0       -4.189711   -1.801164   -1.872609
     35          6           0       -3.161735   -2.727920   -1.902831
     36          7           0       -1.947955   -2.097471   -1.939520
     37          1           0       -2.619131    5.085296   -1.289651
     38          1           0       -4.204187    3.388440   -1.122364
     39          1           0       -4.969332    2.649190    1.345098
     40          1           0       -4.867569    0.783665    2.920811
     41          1           0       -3.045124   -0.828990    2.869373
     42          1           0       -0.919781   -3.074983    0.422093
     43          1           0       -2.358386   -2.651145    1.372181
     44          1           0       -2.207893   -2.673579    4.005796
     45          1           0       -0.650300   -3.170148    4.758693
     46          1           0       -0.763945   -1.592284    3.959503
     47          1           0       -0.760387   -5.327176    3.458333
     48          1           0       -2.266692   -4.797501    2.632337
     49          1           0       -0.816485   -5.294200    1.637905
     50          1           0        1.315881   -3.980356    3.312283
     51          1           0        1.257004   -3.720823    1.540952
     52          1           0        1.331889   -2.327574    2.690216
     53          1           0        0.898340   -2.151593   -0.679871
     54          1           0        4.206239    0.529039   -0.109557
     55          1           0        0.637683    1.078455    2.209616
     56          1           0        0.802033    3.554734    0.507809
     57          1           0       -0.957251    5.126640    0.709117
     58          1           0        1.603728    2.940412   -1.988096
     59          1           0        1.632250    1.145218   -3.651581
     60          1           0        0.263202   -1.800716   -3.529698
     61          1           0       -1.176541   -1.058177   -4.390688
     62          1           0        0.502231   -0.570355   -4.834178
     63          1           0       -4.017950    0.383021   -1.893214
     64          1           0       -5.244146   -1.973802   -1.852199
     65          1           0       -3.277899   -3.804315   -1.892443
 ---------------------------------------------------------------------
 Rotational constants (GHZ):           0.0984319           0.0813390           0.0720382
 Leave Link  202 at Thu Jan 23 18:21:55 2025, MaxMem=  3221225472 cpu:               0.8 elap:               0.0
 (Enter /software/gaussian/G16-C.01/avx2/g16/l301.exe)
 Standard basis: def2SVP (5D, 7F)
 Ernie: Thresh=  0.10000D-02 Tol=  0.10000D-05 Strict=F.
 There are   725 symmetry adapted cartesian basis functions of A   symmetry.
 There are   685 symmetry adapted basis functions of A   symmetry.
   685 basis functions,  1213 primitive gaussians,   725 cartesian basis functions
   152 alpha electrons      152 beta electrons
       nuclear repulsion energy      5260.1039080935 Hartrees.
 IExCor= 1009 DFT=T Ex+Corr=PBE1PBE ExCW=0 ScaHFX=  0.250000
 ScaDFX=  0.750000  0.750000  1.000000  1.000000 ScalE2=  1.000000  1.000000
 IRadAn=      5 IRanWt=     -1 IRanGd=            0 ICorTp=0 IEmpDi=141
 NAtoms=   65 NActive=   65 NUniq=   65 SFac= 1.00D+00 NAtFMM=   60 NAOKFM=T Big=T
 Integral buffers will be    131072 words long.
 Raffenetti 2 integral format.
 Two-electron integral symmetry is turned on.
 R6Disp:  Grimme-D3(BJ) Dispersion energy=       -0.1079075376 Hartrees.
 Nuclear repulsion after empirical dispersion term =     5259.9960005559 Hartrees.
 Leave Link  301 at Thu Jan 23 18:21:55 2025, MaxMem=  3221225472 cpu:               1.2 elap:               0.1
 (Enter /software/gaussian/G16-C.01/avx2/g16/l302.exe)
 NPDir=0 NMtPBC=     1 NCelOv=     1 NCel=       1 NClECP=     1 NCelD=      1
         NCelK=      1 NCelE2=     1 NClLst=     1 CellRange=     0.0.
 One-electron integrals computed using PRISM.
 One-electron integral symmetry used in STVInt
   1 Symmetry operations used in ECPInt.
 ECPInt:  NShTT=   49770 NPrTT=  188800 LenC2=   44028 LenP2D=  108627.
 LDataN:  DoStor=T MaxTD1= 4 Len=   56
 NBasis=   685 RedAO= T EigKep=  1.48D-04  NBF=   685
 NBsUse=   685 1.00D-06 EigRej= -1.00D+00 NBFU=   685
 Precomputing XC quadrature grid using
 IXCGrd= 4 IRadAn=           5 IRanWt=          -1 IRanGd=           0 AccXCQ= 0.00D+00.
 Generated NRdTot=       0 NPtTot=           0 NUsed=           0 NTot=          32
 NSgBfM=   701   700   700   700   701 MxSgAt=    65 MxSgA2=    65.
 Leave Link  302 at Thu Jan 23 18:21:56 2025, MaxMem=  3221225472 cpu:              27.5 elap:               1.2
 (Enter /software/gaussian/G16-C.01/avx2/g16/l303.exe)
 DipDrv:  MaxL=1.
 Leave Link  303 at Thu Jan 23 18:21:56 2025, MaxMem=  3221225472 cpu:               3.6 elap:               0.2
 (Enter /software/gaussian/G16-C.01/avx2/g16/l401.exe)
 ExpMin= 8.36D-02 ExpMax= 1.13D+05 ExpMxC= 1.70D+04 IAcc=3 IRadAn=         5 AccDes= 0.00D+00
 Harris functional with IExCor= 1009 and IRadAn=       5 diagonalized for initial guess.
 HarFok:  IExCor= 1009 AccDes= 0.00D+00 IRadAn=         5 IDoV= 1 UseB2=F ITyADJ=14
 ICtDFT=  3500011 ScaDFX=  1.000000  1.000000  1.000000  1.000000
 FoFCou: FMM=F IPFlag=           0 FMFlag=      100000 FMFlg1=        2001
         NFxFlg=           0 DoJE=T BraDBF=F KetDBF=T FulRan=T
         wScrn=  0.000000 ICntrl=       500 IOpCl=  0 I1Cent=   200000004 NGrid=           0
         NMat0=    1 NMatS0=      1 NMatT0=    0 NMatD0=    1 NMtDS0=    0 NMtDT0=    0
 Petite list used in FoFCou.
 Harris En= -6477.89650101742    
 JPrj=0 DoOrth=F DoCkMO=F.
 Leave Link  401 at Thu Jan 23 18:21:59 2025, MaxMem=  3221225472 cpu:              71.3 elap:               3.0
 (Enter /software/gaussian/G16-C.01/avx2/g16/l502.exe)
 Integral symmetry usage will be decided dynamically.
 Closed shell SCF:
 Using DIIS extrapolation, IDIIS=  1040.
 NGot=  3221225472 LenX=  3220147796 LenY=  3219621446
 Requested convergence on RMS density matrix=1.00D-08 within 128 cycles.
 Requested convergence on MAX density matrix=1.00D-06.
 Requested convergence on             energy=1.00D-06.
 No special actions if energy rises.
 Fock matrices will be formed incrementally for  20 cycles.
 Integral accuracy reduced to 1.0D-05 until final iterations.

 Cycle   1  Pass 0  IDiag  1:
 FoFJK:  IHMeth= 1 ICntrl=       0 DoSepK=F KAlg= 0 I1Cent=           0 FoldK=F
 IRaf= 990000000 NMat=       1 IRICut=       1 DoRegI=T DoRafI=F ISym2E= 0 IDoP0=0 IntGTp=1.
 FoFCou: FMM=T IPFlag=           0 FMFlag=      100000 FMFlg1=        2001
         NFxFlg=           0 DoJE=F BraDBF=F KetDBF=F FulRan=T
         wScrn=  0.000000 ICntrl=         0 IOpCl=  0 I1Cent=           0 NGrid=           0
         NMat0=    1 NMatS0=      1 NMatT0=    0 NMatD0=    1 NMtDS0=    0 NMtDT0=    0
 Symmetry not used in FoFCou.
 FMM levels:  10  Number of levels for PrismC:   9
 E= -6477.01386671612    
 DIIS: error= 3.76D-02 at cycle   1 NSaved=   1.
 NSaved= 1 IEnMin= 1 EnMin= -6477.01386671612     IErMin= 1 ErrMin= 3.76D-02
 ErrMax= 3.76D-02  0.00D+00 EMaxC= 1.00D-01 BMatC= 8.41D-01 BMatP= 8.41D-01
 IDIUse=3 WtCom= 6.24D-01 WtEn= 3.76D-01
 Coeff-Com:  0.100D+01
 Coeff-En:   0.100D+01
 Coeff:      0.100D+01
 Gap=     0.216 Goal=   None    Shift=    0.000
 GapD=    0.216 DampG=1.000 DampE=0.500 DampFc=0.5000 IDamp=-1.
 Damping current iteration by 5.00D-01
 RMSDP=3.54D-03 MaxDP=1.48D-01              OVMax= 2.08D-01

 Cycle   2  Pass 0  IDiag  1:
 RMSU=  1.72D-03    CP:  9.75D-01
 E= -6477.32599838222     Delta-E=       -0.312131666102 Rises=F Damp=T
 DIIS: error= 5.78D-03 at cycle   2 NSaved=   2.
 NSaved= 2 IEnMin= 2 EnMin= -6477.32599838222     IErMin= 2 ErrMin= 5.78D-03
 ErrMax= 5.78D-03  0.00D+00 EMaxC= 1.00D-01 BMatC= 6.05D-02 BMatP= 8.41D-01
 IDIUse=3 WtCom= 9.42D-01 WtEn= 5.78D-02
 Coeff-Com:  0.457D-01 0.954D+00
 Coeff-En:   0.137D+00 0.863D+00
 Coeff:      0.510D-01 0.949D+00
 Gap=     0.255 Goal=   None    Shift=    0.000
 RMSDP=1.41D-03 MaxDP=7.49D-02 DE=-3.12D-01 OVMax= 2.33D-01

 Cycle   3  Pass 0  IDiag  1:
 RMSU=  1.39D-03    CP:  9.60D-01  9.73D-01
 E= -6477.66650259224     Delta-E=       -0.340504210015 Rises=F Damp=F
 DIIS: error= 8.36D-03 at cycle   3 NSaved=   3.
 NSaved= 3 IEnMin= 3 EnMin= -6477.66650259224     IErMin= 2 ErrMin= 5.78D-03
 ErrMax= 8.36D-03  0.00D+00 EMaxC= 1.00D-01 BMatC= 8.10D-02 BMatP= 6.05D-02
 IDIUse=3 WtCom= 9.86D-02 WtEn= 9.01D-01
 Coeff-Com: -0.357D-01 0.557D+00 0.479D+00
 Coeff-En:   0.000D+00 0.000D+00 0.100D+01
 Coeff:     -0.352D-02 0.549D-01 0.949D+00
 Gap=     0.222 Goal=   None    Shift=    0.000
 RMSDP=1.63D-03 MaxDP=1.33D-01 DE=-3.41D-01 OVMax= 1.48D-01

 Cycle   4  Pass 0  IDiag  1:
 RMSU=  1.05D-03    CP:  9.60D-01  1.32D+00  2.15D-01
 E= -6477.41347286358     Delta-E=        0.253029728656 Rises=F Damp=F
 DIIS: error= 2.02D-02 at cycle   4 NSaved=   4.
 NSaved= 4 IEnMin= 3 EnMin= -6477.66650259224     IErMin= 2 ErrMin= 5.78D-03
 ErrMax= 2.02D-02  0.00D+00 EMaxC= 1.00D-01 BMatC= 3.31D-01 BMatP= 6.05D-02
 IDIUse=2 WtCom= 0.00D+00 WtEn= 1.00D+00
 Coeff-En:   0.000D+00 0.000D+00 0.747D+00 0.253D+00
 Coeff:      0.000D+00 0.000D+00 0.747D+00 0.253D+00
 Gap=     0.181 Goal=   None    Shift=    0.000
 RMSDP=8.58D-04 MaxDP=6.62D-02 DE= 2.53D-01 OVMax= 1.09D-01

 Cycle   5  Pass 0  IDiag  1:
 RMSU=  2.08D-04    CP:  9.60D-01  1.16D+00  5.82D-01  4.29D-01
 E= -6477.72958564887     Delta-E=       -0.316112785285 Rises=F Damp=F
 DIIS: error= 4.76D-03 at cycle   5 NSaved=   5.
 NSaved= 5 IEnMin= 5 EnMin= -6477.72958564887     IErMin= 5 ErrMin= 4.76D-03
 ErrMax= 4.76D-03  0.00D+00 EMaxC= 1.00D-01 BMatC= 1.95D-02 BMatP= 6.05D-02
 IDIUse=3 WtCom= 9.52D-01 WtEn= 4.76D-02
 Coeff-Com:  0.923D-02-0.434D-02 0.344D+00 0.250D-01 0.626D+00
 Coeff-En:   0.000D+00 0.000D+00 0.242D+00 0.000D+00 0.758D+00
 Coeff:      0.879D-02-0.413D-02 0.339D+00 0.238D-01 0.633D+00
 Gap=     0.172 Goal=   None    Shift=    0.000
 RMSDP=2.89D-04 MaxDP=2.35D-02 DE=-3.16D-01 OVMax= 3.31D-02

 Cycle   6  Pass 0  IDiag  1:
 RMSU=  8.20D-05    CP:  9.60D-01  1.09D+00  7.28D-01  3.09D-01  6.37D-01
 E= -6477.74893742897     Delta-E=       -0.019351780100 Rises=F Damp=F
 DIIS: error= 5.06D-04 at cycle   6 NSaved=   6.
 NSaved= 6 IEnMin= 6 EnMin= -6477.74893742897     IErMin= 6 ErrMin= 5.06D-04
 ErrMax= 5.06D-04  0.00D+00 EMaxC= 1.00D-01 BMatC= 4.85D-04 BMatP= 1.95D-02
 IDIUse=3 WtCom= 9.95D-01 WtEn= 5.06D-03
 Coeff-Com:  0.442D-02-0.136D-01 0.123D+00-0.319D-01 0.411D+00 0.507D+00
 Coeff-En:   0.000D+00 0.000D+00 0.000D+00 0.000D+00 0.000D+00 0.100D+01
 Coeff:      0.439D-02-0.136D-01 0.123D+00-0.318D-01 0.409D+00 0.509D+00
 Gap=     0.171 Goal=   None    Shift=    0.000
 RMSDP=5.25D-05 MaxDP=2.13D-03 DE=-1.94D-02 OVMax= 6.10D-03

 Cycle   7  Pass 0  IDiag  1:
 RMSU=  2.98D-05    CP:  9.60D-01  1.10D+00  7.25D-01  2.99D-01  7.55D-01
                    CP:  5.91D-01
 E= -6477.74948237955     Delta-E=       -0.000544950584 Rises=F Damp=F
 DIIS: error= 1.40D-04 at cycle   7 NSaved=   7.
 NSaved= 7 IEnMin= 7 EnMin= -6477.74948237955     IErMin= 7 ErrMin= 1.40D-04
 ErrMax= 1.40D-04  0.00D+00 EMaxC= 1.00D-01 BMatC= 4.57D-05 BMatP= 4.85D-04
 IDIUse=3 WtCom= 9.99D-01 WtEn= 1.40D-03
 Coeff-Com:  0.194D-02-0.673D-02 0.550D-01-0.236D-01 0.220D+00 0.328D+00
 Coeff-Com:  0.426D+00
 Coeff-En:   0.000D+00 0.000D+00 0.000D+00 0.000D+00 0.000D+00 0.000D+00
 Coeff-En:   0.100D+01
 Coeff:      0.194D-02-0.673D-02 0.549D-01-0.236D-01 0.219D+00 0.327D+00
 Coeff:      0.427D+00
 Gap=     0.171 Goal=   None    Shift=    0.000
 RMSDP=1.56D-05 MaxDP=5.40D-04 DE=-5.45D-04 OVMax= 1.53D-03

 Cycle   8  Pass 0  IDiag  1:
 RMSU=  1.19D-05    CP:  9.60D-01  1.10D+00  7.25D-01  3.00D-01  7.51D-01
                    CP:  6.36D-01  6.88D-01
 E= -6477.74954383839     Delta-E=       -0.000061458835 Rises=F Damp=F
 DIIS: error= 3.00D-05 at cycle   8 NSaved=   8.
 NSaved= 8 IEnMin= 8 EnMin= -6477.74954383839     IErMin= 8 ErrMin= 3.00D-05
 ErrMax= 3.00D-05  0.00D+00 EMaxC= 1.00D-01 BMatC= 2.05D-06 BMatP= 4.57D-05
 IDIUse=1 WtCom= 1.00D+00 WtEn= 0.00D+00
 Coeff-Com:  0.654D-03-0.217D-02 0.200D-01-0.109D-01 0.871D-01 0.139D+00
 Coeff-Com:  0.229D+00 0.538D+00
 Coeff:      0.654D-03-0.217D-02 0.200D-01-0.109D-01 0.871D-01 0.139D+00
 Coeff:      0.229D+00 0.538D+00
 Gap=     0.171 Goal=   None    Shift=    0.000
 RMSDP=5.21D-06 MaxDP=2.62D-04 DE=-6.15D-05 OVMax= 4.09D-04

 Initial convergence to 1.0D-05 achieved.  Increase integral accuracy.
 Cycle   9  Pass 1  IDiag  1:
 E= -6477.74926749917     Delta-E=        0.000276339215 Rises=F Damp=F
 DIIS: error= 4.99D-04 at cycle   1 NSaved=   1.
 NSaved= 1 IEnMin= 1 EnMin= -6477.74926749917     IErMin= 1 ErrMin= 4.99D-04
 ErrMax= 4.99D-04  0.00D+00 EMaxC= 1.00D-01 BMatC= 9.65D-05 BMatP= 9.65D-05
 IDIUse=3 WtCom= 9.95D-01 WtEn= 4.99D-03
 Coeff-Com:  0.100D+01
 Coeff-En:   0.100D+01
 Coeff:      0.100D+01
 Gap=     0.171 Goal=   None    Shift=    0.000
 RMSDP=5.21D-06 MaxDP=2.62D-04 DE= 2.76D-04 OVMax= 1.25D-03

 Cycle  10  Pass 1  IDiag  1:
 RMSU=  4.06D-04    CP:  9.99D-01
 E= -6477.74936106704     Delta-E=       -0.000093567869 Rises=F Damp=F
 DIIS: error= 3.11D-05 at cycle   2 NSaved=   2.
 NSaved= 2 IEnMin= 2 EnMin= -6477.74936106704     IErMin= 2 ErrMin= 3.11D-05
 ErrMax= 3.11D-05  0.00D+00 EMaxC= 1.00D-01 BMatC= 2.27D-06 BMatP= 9.65D-05
 IDIUse=1 WtCom= 1.00D+00 WtEn= 0.00D+00
 Coeff-Com:  0.218D-01 0.978D+00
 Coeff:      0.218D-01 0.978D+00
 Gap=     0.171 Goal=   None    Shift=    0.000
 RMSDP=1.17D-05 MaxDP=5.63D-04 DE=-9.36D-05 OVMax= 1.05D-03

 Cycle  11  Pass 1  IDiag  1:
 RMSU=  9.96D-06    CP:  9.99D-01  1.02D+00
 E= -6477.74935133806     Delta-E=        0.000009728981 Rises=F Damp=F
 DIIS: error= 6.81D-05 at cycle   3 NSaved=   3.
 NSaved= 3 IEnMin= 2 EnMin= -6477.74936106704     IErMin= 2 ErrMin= 3.11D-05
 ErrMax= 6.81D-05  0.00D+00 EMaxC= 1.00D-01 BMatC= 1.10D-05 BMatP= 2.27D-06
 IDIUse=1 WtCom= 1.00D+00 WtEn= 0.00D+00
 Coeff-Com: -0.796D-02 0.693D+00 0.314D+00
 Coeff:     -0.796D-02 0.693D+00 0.314D+00
 Gap=     0.171 Goal=   None    Shift=    0.000
 RMSDP=6.86D-06 MaxDP=3.42D-04 DE= 9.73D-06 OVMax= 7.19D-04

 Cycle  12  Pass 1  IDiag  1:
 RMSU=  1.51D-06    CP:  9.99D-01  1.02D+00  3.30D-01
 E= -6477.74936358655     Delta-E=       -0.000012248485 Rises=F Damp=F
 DIIS: error= 3.69D-06 at cycle   4 NSaved=   4.
 NSaved= 4 IEnMin= 4 EnMin= -6477.74936358655     IErMin= 4 ErrMin= 3.69D-06
 ErrMax= 3.69D-06  0.00D+00 EMaxC= 1.00D-01 BMatC= 3.61D-08 BMatP= 2.27D-06
 IDIUse=1 WtCom= 1.00D+00 WtEn= 0.00D+00
 Coeff-Com: -0.486D-02 0.401D+00 0.185D+00 0.419D+00
 Coeff:     -0.486D-02 0.401D+00 0.185D+00 0.419D+00
 Gap=     0.171 Goal=   None    Shift=    0.000
 RMSDP=3.99D-07 MaxDP=2.27D-05 DE=-1.22D-05 OVMax= 4.33D-05

 Cycle  13  Pass 1  IDiag  1:
 RMSU=  3.59D-07    CP:  9.99D-01  1.02D+00  3.36D-01  8.92D-01
 E= -6477.74936362268     Delta-E=       -0.000000036136 Rises=F Damp=F
 DIIS: error= 9.82D-07 at cycle   5 NSaved=   5.
 NSaved= 5 IEnMin= 5 EnMin= -6477.74936362268     IErMin= 5 ErrMin= 9.82D-07
 ErrMax= 9.82D-07  0.00D+00 EMaxC= 1.00D-01 BMatC= 1.43D-09 BMatP= 3.61D-08
 IDIUse=1 WtCom= 1.00D+00 WtEn= 0.00D+00
 Coeff-Com: -0.163D-02 0.131D+00 0.607D-01 0.204D+00 0.606D+00
 Coeff:     -0.163D-02 0.131D+00 0.607D-01 0.204D+00 0.606D+00
 Gap=     0.171 Goal=   None    Shift=    0.000
 RMSDP=1.17D-07 MaxDP=5.28D-06 DE=-3.61D-08 OVMax= 1.26D-05

 Cycle  14  Pass 1  IDiag  1:
 RMSU=  9.91D-08    CP:  9.99D-01  1.02D+00  3.36D-01  9.18D-01  8.80D-01
 E= -6477.74936362370     Delta-E=       -0.000000001022 Rises=F Damp=F
 DIIS: error= 5.24D-07 at cycle   6 NSaved=   6.
 NSaved= 6 IEnMin= 6 EnMin= -6477.74936362370     IErMin= 6 ErrMin= 5.24D-07
 ErrMax= 5.24D-07  0.00D+00 EMaxC= 1.00D-01 BMatC= 5.25D-10 BMatP= 1.43D-09
 IDIUse=1 WtCom= 1.00D+00 WtEn= 0.00D+00
 Coeff-Com: -0.702D-04 0.361D-02 0.183D-02 0.506D-01 0.411D+00 0.533D+00
 Coeff:     -0.702D-04 0.361D-02 0.183D-02 0.506D-01 0.411D+00 0.533D+00
 Gap=     0.171 Goal=   None    Shift=    0.000
 RMSDP=5.41D-08 MaxDP=2.47D-06 DE=-1.02D-09 OVMax= 5.62D-06

 Cycle  15  Pass 1  IDiag  1:
 RMSU=  2.86D-08    CP:  9.99D-01  1.02D+00  3.36D-01  9.21D-01  9.25D-01
                    CP:  5.78D-01
 E= -6477.74936362416     Delta-E=       -0.000000000455 Rises=F Damp=F
 DIIS: error= 1.63D-07 at cycle   7 NSaved=   7.
 NSaved= 7 IEnMin= 7 EnMin= -6477.74936362416     IErMin= 7 ErrMin= 1.63D-07
 ErrMax= 1.63D-07  0.00D+00 EMaxC= 1.00D-01 BMatC= 4.45D-11 BMatP= 5.25D-10
 IDIUse=1 WtCom= 1.00D+00 WtEn= 0.00D+00
 Coeff-Com:  0.450D-04-0.494D-02-0.218D-02 0.217D-01 0.232D+00 0.344D+00
 Coeff-Com:  0.410D+00
 Coeff:      0.450D-04-0.494D-02-0.218D-02 0.217D-01 0.232D+00 0.344D+00
 Coeff:      0.410D+00
 Gap=     0.171 Goal=   None    Shift=    0.000
 RMSDP=1.64D-08 MaxDP=1.08D-06 DE=-4.55D-10 OVMax= 1.88D-06

 Cycle  16  Pass 1  IDiag  1:
 RMSU=  1.03D-08    CP:  9.99D-01  1.02D+00  3.36D-01  9.24D-01  9.17D-01
                    CP:  6.14D-01  6.16D-01
 E= -6477.74936362425     Delta-E=       -0.000000000095 Rises=F Damp=F
 DIIS: error= 5.35D-08 at cycle   8 NSaved=   8.
 NSaved= 8 IEnMin= 8 EnMin= -6477.74936362425     IErMin= 8 ErrMin= 5.35D-08
 ErrMax= 5.35D-08  0.00D+00 EMaxC= 1.00D-01 BMatC= 3.29D-12 BMatP= 4.45D-11
 IDIUse=1 WtCom= 1.00D+00 WtEn= 0.00D+00
 Coeff-Com:  0.343D-04-0.335D-02-0.150D-02 0.782D-02 0.947D-01 0.150D+00
 Coeff-Com:  0.248D+00 0.504D+00
 Coeff:      0.343D-04-0.335D-02-0.150D-02 0.782D-02 0.947D-01 0.150D+00
 Coeff:      0.248D+00 0.504D+00
 Gap=     0.171 Goal=   None    Shift=    0.000
 RMSDP=4.17D-09 MaxDP=2.98D-07 DE=-9.46D-11 OVMax= 4.71D-07

 SCF Done:  E(RPBE1PBE) =  -6477.74936362     A.U. after   16 cycles
            NFock= 16  Conv=0.42D-08     -V/T= 2.0030
 KE= 6.458061504132D+03 PE=-2.590517044784D+04 EE= 7.709363579523D+03
 Leave Link  502 at Thu Jan 23 18:24:07 2025, MaxMem=  3221225472 cpu:            3032.3 elap:             127.3
 (Enter /software/gaussian/G16-C.01/avx2/g16/l601.exe)
 Copying SCF densities to generalized density rwf, IOpCl= 0 IROHF=0.

 **********************************************************************

            Population analysis using the SCF Density.

 **********************************************************************

 Orbital symmetries:
       Occupied  (A) (A) (A) (A) (A) (A) (A) (A) (A) (A) (A) (A)
                 (A) (A) (A) (A) (A) (A) (A) (A) (A) (A) (A) (A)
                 (A) (A) (A) (A) (A) (A) (A) (A) (A) (A) (A) (A)
                 (A) (A) (A) (A) (A) (A) (A) (A) (A) (A) (A) (A)
                 (A) (A) (A) (A) (A) (A) (A) (A) (A) (A) (A) (A)
                 (A) (A) (A) (A) (A) (A) (A) (A) (A) (A) (A) (A)
                 (A) (A) (A) (A) (A) (A) (A) (A) (A) (A) (A) (A)
                 (A) (A) (A) (A) (A) (A) (A) (A) (A) (A) (A) (A)
                 (A) (A) (A) (A) (A) (A) (A) (A) (A) (A) (A) (A)
                 (A) (A) (A) (A) (A) (A) (A) (A) (A) (A) (A) (A)
                 (A) (A) (A) (A) (A) (A) (A) (A) (A) (A) (A) (A)
                 (A) (A) (A) (A) (A) (A) (A) (A) (A) (A) (A) (A)
                 (A) (A) (A) (A) (A) (A) (A) (A)
       Virtual   (A) (A) (A) (A) (A) (A) (A) (A) (A) (A) (A) (A)
                 (A) (A) (A) (A) (A) (A) (A) (A) (A) (A) (A) (A)
                 (A) (A) (A) (A) (A) (A) (A) (A) (A) (A) (A) (A)
                 (A) (A) (A) (A) (A) (A) (A) (A) (A) (A) (A) (A)
                 (A) (A) (A) (A) (A) (A) (A) (A) (A) (A) (A) (A)
                 (A) (A) (A) (A) (A) (A) (A) (A) (A) (A) (A) (A)
                 (A) (A) (A) (A) (A) (A) (A) (A) (A) (A) (A) (A)
                 (A) (A) (A) (A) (A) (A) (A) (A) (A) (A) (A) (A)
                 (A) (A) (A) (A) (A) (A) (A) (A) (A) (A) (A) (A)
                 (A) (A) (A) (A) (A) (A) (A) (A) (A) (A) (A) (A)
                 (A) (A) (A) (A) (A) (A) (A) (A) (A) (A) (A) (A)
                 (A) (A) (A) (A) (A) (A) (A) (A) (A) (A) (A) (A)
                 (A) (A) (A) (A) (A) (A) (A) (A) (A) (A) (A) (A)
                 (A) (A) (A) (A) (A) (A) (A) (A) (A) (A) (A) (A)
                 (A) (A) (A) (A) (A) (A) (A) (A) (A) (A) (A) (A)
                 (A) (A) (A) (A) (A) (A) (A) (A) (A) (A) (A) (A)
                 (A) (A) (A) (A) (A) (A) (A) (A) (A) (A) (A) (A)
                 (A) (A) (A) (A) (A) (A) (A) (A) (A) (A) (A) (A)
                 (A) (A) (A) (A) (A) (A) (A) (A) (A) (A) (A) (A)
                 (A) (A) (A) (A) (A) (A) (A) (A) (A) (A) (A) (A)
                 (A) (A) (A) (A) (A) (A) (A) (A) (A) (A) (A) (A)
                 (A) (A) (A) (A) (A) (A) (A) (A) (A) (A) (A) (A)
                 (A) (A) (A) (A) (A) (A) (A) (A) (A) (A) (A) (A)
                 (A) (A) (A) (A) (A) (A) (A) (A) (A) (A) (A) (A)
                 (A) (A) (A) (A) (A) (A) (A) (A) (A) (A) (A) (A)
                 (A) (A) (A) (A) (A) (A) (A) (A) (A) (A) (A) (A)
                 (A) (A) (A) (A) (A) (A) (A) (A) (A) (A) (A) (A)
                 (A) (A) (A) (A) (A) (A) (A) (A) (A) (A) (A) (A)
                 (A) (A) (A) (A) (A) (A) (A) (A) (A) (A) (A) (A)
                 (A) (A) (A) (A) (A) (A) (A) (A) (A) (A) (A) (A)
                 (A) (A) (A) (A) (A) (A) (A) (A) (A) (A) (A) (A)
                 (A) (A) (A) (A) (A) (A) (A) (A) (A) (A) (A) (A)
                 (A) (A) (A) (A) (A) (A) (A) (A) (A) (A) (A) (A)
                 (A) (A) (A) (A) (A) (A) (A) (A) (A) (A) (A) (A)
                 (A) (A) (A) (A) (A) (A) (A) (A) (A) (A) (A) (A)
                 (A) (A) (A) (A) (A) (A) (A) (A) (A) (A) (A) (A)
                 (A) (A) (A) (A) (A) (A) (A) (A) (A) (A) (A) (A)
                 (A) (A) (A) (A) (A) (A) (A) (A) (A) (A) (A) (A)
                 (A) (A) (A) (A) (A) (A) (A) (A) (A) (A) (A) (A)
                 (A) (A) (A) (A) (A) (A) (A) (A) (A) (A) (A) (A)
                 (A) (A) (A) (A) (A) (A) (A) (A) (A) (A) (A) (A)
                 (A) (A) (A) (A) (A) (A) (A) (A) (A) (A) (A) (A)
                 (A) (A) (A) (A) (A) (A) (A) (A) (A) (A) (A) (A)
                 (A) (A) (A) (A) (A) (A) (A) (A) (A) (A) (A) (A)
                 (A) (A) (A) (A) (A)
 The electronic state is 1-A.
 Alpha  occ. eigenvalues -- -483.19969-483.19695 -62.63305 -62.63055 -56.42304
 Alpha  occ. eigenvalues --  -56.42049 -56.41953 -56.41939 -56.41700 -56.41687
 Alpha  occ. eigenvalues --  -14.48467 -14.40465 -10.30118 -10.30046 -10.29151
 Alpha  occ. eigenvalues --  -10.26561 -10.26395 -10.25958 -10.25921 -10.25573
 Alpha  occ. eigenvalues --  -10.25563 -10.25423 -10.25256 -10.25085 -10.25062
 Alpha  occ. eigenvalues --  -10.24674 -10.24645 -10.24601 -10.24584 -10.24507
 Alpha  occ. eigenvalues --  -10.24496 -10.24442 -10.24318 -10.24296 -10.23901
 Alpha  occ. eigenvalues --  -10.23834 -10.23446 -10.23210 -10.22650 -10.22395
 Alpha  occ. eigenvalues --  -10.22315 -10.21732 -10.20617  -8.77885  -8.77658
 Alpha  occ. eigenvalues --   -6.79445  -6.59362  -6.59134  -6.58087  -6.58049
 Alpha  occ. eigenvalues --   -6.57860  -6.57826  -2.67911  -2.67690  -2.67551
 Alpha  occ. eigenvalues --   -2.67521  -2.67324  -2.67298  -2.66498  -2.66498
 Alpha  occ. eigenvalues --   -2.66274  -2.66274  -1.08703  -0.91238  -0.90577
 Alpha  occ. eigenvalues --   -0.88294  -0.85675  -0.84375  -0.83543  -0.83255
 Alpha  occ. eigenvalues --   -0.81410  -0.81059  -0.80088  -0.79463  -0.77108
 Alpha  occ. eigenvalues --   -0.76252  -0.74665  -0.73876  -0.73533  -0.69802
 Alpha  occ. eigenvalues --   -0.69395  -0.68814  -0.68376  -0.66869  -0.64387
 Alpha  occ. eigenvalues --   -0.63315  -0.62487  -0.61939  -0.61439  -0.60644
 Alpha  occ. eigenvalues --   -0.59808  -0.57860  -0.55742  -0.54689  -0.53614
 Alpha  occ. eigenvalues --   -0.53434  -0.52376  -0.51627  -0.50536  -0.49787
 Alpha  occ. eigenvalues --   -0.48812  -0.48110  -0.47661  -0.46883  -0.46691
 Alpha  occ. eigenvalues --   -0.46391  -0.45865  -0.45652  -0.45572  -0.44739
 Alpha  occ. eigenvalues --   -0.44524  -0.44020  -0.43855  -0.43602  -0.43108
 Alpha  occ. eigenvalues --   -0.42606  -0.41945  -0.41519  -0.40758  -0.40269
 Alpha  occ. eigenvalues --   -0.39796  -0.39405  -0.38716  -0.38349  -0.38121
 Alpha  occ. eigenvalues --   -0.37652  -0.37114  -0.36896  -0.36595  -0.36553
 Alpha  occ. eigenvalues --   -0.35985  -0.35277  -0.34682  -0.34103  -0.33556
 Alpha  occ. eigenvalues --   -0.33045  -0.32171  -0.31816  -0.31476  -0.30424
 Alpha  occ. eigenvalues --   -0.30130  -0.30022  -0.29826  -0.29551  -0.27822
 Alpha  occ. eigenvalues --   -0.27393  -0.26965  -0.25898  -0.25747  -0.25020
 Alpha  occ. eigenvalues --   -0.24556  -0.23892
 Alpha virt. eigenvalues --   -0.06775  -0.03804  -0.03540  -0.02146  -0.01629
 Alpha virt. eigenvalues --   -0.01220  -0.00953   0.00689   0.02448   0.02796
 Alpha virt. eigenvalues --    0.03616   0.05051   0.06300   0.07099   0.07911
 Alpha virt. eigenvalues --    0.08255   0.08833   0.09425   0.10291   0.10699
 Alpha virt. eigenvalues --    0.10888   0.10964   0.11053   0.12121   0.12298
 Alpha virt. eigenvalues --    0.12698   0.13125   0.13496   0.13789   0.14060
 Alpha virt. eigenvalues --    0.14397   0.14492   0.14819   0.15200   0.15601
 Alpha virt. eigenvalues --    0.15741   0.16415   0.16974   0.17203   0.17636
 Alpha virt. eigenvalues --    0.17998   0.18704   0.19038   0.19807   0.20143
 Alpha virt. eigenvalues --    0.20314   0.22024   0.22239   0.22946   0.23401
 Alpha virt. eigenvalues --    0.23597   0.23909   0.25081   0.25196   0.25466
 Alpha virt. eigenvalues --    0.25748   0.26858   0.26928   0.27334   0.27580
 Alpha virt. eigenvalues --    0.28129   0.28967   0.29743   0.29980   0.30013
 Alpha virt. eigenvalues --    0.31126   0.31544   0.31667   0.32792   0.33039
 Alpha virt. eigenvalues --    0.33923   0.34183   0.34804   0.35130   0.35521
 Alpha virt. eigenvalues --    0.36230   0.37054   0.37505   0.38346   0.38697
 Alpha virt. eigenvalues --    0.39157   0.39832   0.39919   0.40306   0.40707
 Alpha virt. eigenvalues --    0.41383   0.41657   0.42253   0.42909   0.43100
 Alpha virt. eigenvalues --    0.43310   0.43731   0.43766   0.44532   0.44807
 Alpha virt. eigenvalues --    0.45162   0.45596   0.46033   0.46347   0.46902
 Alpha virt. eigenvalues --    0.47359   0.47651   0.48272   0.48595   0.48993
 Alpha virt. eigenvalues --    0.49194   0.49258   0.49729   0.50261   0.50486
 Alpha virt. eigenvalues --    0.50822   0.51347   0.51399   0.51971   0.52230
 Alpha virt. eigenvalues --    0.52557   0.52767   0.53016   0.53458   0.53585
 Alpha virt. eigenvalues --    0.54241   0.54932   0.55365   0.55977   0.56168
 Alpha virt. eigenvalues --    0.56754   0.57001   0.57315   0.57607   0.58207
 Alpha virt. eigenvalues --    0.59069   0.59172   0.59371   0.60539   0.60842
 Alpha virt. eigenvalues --    0.61262   0.61981   0.62411   0.62740   0.62909
 Alpha virt. eigenvalues --    0.63569   0.63941   0.64169   0.64644   0.64975
 Alpha virt. eigenvalues --    0.65088   0.65344   0.65838   0.66167   0.66582
 Alpha virt. eigenvalues --    0.66627   0.66849   0.67005   0.67361   0.67886
 Alpha virt. eigenvalues --    0.68010   0.68181   0.68345   0.68541   0.68819
 Alpha virt. eigenvalues --    0.69013   0.69213   0.69461   0.69851   0.70101
 Alpha virt. eigenvalues --    0.70571   0.70823   0.71189   0.71242   0.71614
 Alpha virt. eigenvalues --    0.71909   0.72056   0.72243   0.72639   0.73078
 Alpha virt. eigenvalues --    0.73221   0.73479   0.73880   0.74131   0.74469
 Alpha virt. eigenvalues --    0.74964   0.75353   0.75886   0.76169   0.76486
 Alpha virt. eigenvalues --    0.76912   0.77272   0.77890   0.78203   0.78551
 Alpha virt. eigenvalues --    0.78714   0.78843   0.79611   0.80260   0.80683
 Alpha virt. eigenvalues --    0.81322   0.81402   0.82041   0.82173   0.82508
 Alpha virt. eigenvalues --    0.83159   0.83756   0.84459   0.84754   0.85701
 Alpha virt. eigenvalues --    0.85813   0.87036   0.87293   0.87679   0.88320
 Alpha virt. eigenvalues --    0.88485   0.89208   0.90344   0.90661   0.91232
 Alpha virt. eigenvalues --    0.91386   0.92381   0.93875   0.94015   0.95280
 Alpha virt. eigenvalues --    0.95846   0.97011   0.97641   0.98153   0.98707
 Alpha virt. eigenvalues --    0.99649   1.00025   1.01851   1.02773   1.03946
 Alpha virt. eigenvalues --    1.04440   1.05381   1.06356   1.06767   1.08163
 Alpha virt. eigenvalues --    1.08777   1.09288   1.09900   1.10819   1.11913
 Alpha virt. eigenvalues --    1.12171   1.12783   1.13693   1.14331   1.15736
 Alpha virt. eigenvalues --    1.16553   1.17871   1.18601   1.19213   1.19954
 Alpha virt. eigenvalues --    1.20583   1.20781   1.21435   1.21865   1.23107
 Alpha virt. eigenvalues --    1.23506   1.24273   1.24874   1.25555   1.26165
 Alpha virt. eigenvalues --    1.26514   1.26767   1.27958   1.28185   1.28860
 Alpha virt. eigenvalues --    1.29041   1.29716   1.30118   1.30867   1.31298
 Alpha virt. eigenvalues --    1.31481   1.31748   1.32529   1.33848   1.34346
 Alpha virt. eigenvalues --    1.35315   1.37217   1.37910   1.39950   1.40472
 Alpha virt. eigenvalues --    1.42296   1.43151   1.44416   1.45989   1.47570
 Alpha virt. eigenvalues --    1.49944   1.49979   1.51132   1.52252   1.53050
 Alpha virt. eigenvalues --    1.53589   1.54205   1.54939   1.55297   1.56082
 Alpha virt. eigenvalues --    1.56612   1.57295   1.58198   1.58535   1.59648
 Alpha virt. eigenvalues --    1.59836   1.60496   1.61257   1.62404   1.62986
 Alpha virt. eigenvalues --    1.63492   1.64433   1.65512   1.66734   1.67987
 Alpha virt. eigenvalues --    1.68557   1.69784   1.70390   1.71277   1.71897
 Alpha virt. eigenvalues --    1.71985   1.73164   1.73508   1.73892   1.74229
 Alpha virt. eigenvalues --    1.74540   1.74824   1.75726   1.76412   1.76467
 Alpha virt. eigenvalues --    1.76879   1.77180   1.77603   1.77862   1.78421
 Alpha virt. eigenvalues --    1.78555   1.79112   1.79473   1.80157   1.80199
 Alpha virt. eigenvalues --    1.81046   1.81123   1.81709   1.82785   1.83451
 Alpha virt. eigenvalues --    1.83837   1.84324   1.84414   1.84630   1.85109
 Alpha virt. eigenvalues --    1.85613   1.86065   1.86332   1.86913   1.87103
 Alpha virt. eigenvalues --    1.87950   1.88026   1.88368   1.89129   1.89533
 Alpha virt. eigenvalues --    1.89679   1.90042   1.90627   1.90941   1.91421
 Alpha virt. eigenvalues --    1.91741   1.92708   1.93028   1.93310   1.93965
 Alpha virt. eigenvalues --    1.94852   1.95518   1.96094   1.96645   1.97190
 Alpha virt. eigenvalues --    1.98021   1.98272   1.99348   1.99832   2.00246
 Alpha virt. eigenvalues --    2.00940   2.01187   2.01752   2.02292   2.02616
 Alpha virt. eigenvalues --    2.03020   2.03754   2.04471   2.05854   2.06099
 Alpha virt. eigenvalues --    2.08097   2.08918   2.10658   2.11290   2.11927
 Alpha virt. eigenvalues --    2.12186   2.12619   2.13173   2.13483   2.14162
 Alpha virt. eigenvalues --    2.15538   2.15945   2.16076   2.17417   2.17598
 Alpha virt. eigenvalues --    2.18236   2.18835   2.20134   2.20645   2.21224
[...]
 Alpha virt. eigenvalues --    1.51001   1.51287   1.52025   1.52415   1.52726
 Alpha virt. eigenvalues --    1.53283   1.53413   1.53755   1.54252   1.54566
 Alpha virt. eigenvalues --    1.54709   1.55214   1.55812   1.56210   1.56729
 Alpha virt. eigenvalues --    1.57172   1.57429   1.57671   1.57707   1.58331
 Alpha virt. eigenvalues --    1.58996   1.59077   1.59665   1.60175   1.60668
 Alpha virt. eigenvalues --    1.60774   1.61145   1.61379   1.61859   1.62443
 Alpha virt. eigenvalues --    1.62703   1.62962   1.63195   1.63459   1.63588
 Alpha virt. eigenvalues --    1.63761   1.64191   1.64324   1.64995   1.65483
 Alpha virt. eigenvalues --    1.65641   1.66124   1.66248   1.66435   1.67001
 Alpha virt. eigenvalues --    1.67177   1.67750   1.68095   1.68182   1.68558
 Alpha virt. eigenvalues --    1.69301   1.69478   1.70016   1.70768   1.71057
 Alpha virt. eigenvalues --    1.71312   1.71604   1.71839   1.71959   1.72955
 Alpha virt. eigenvalues --    1.73109   1.73244   1.73616   1.73991   1.74662
 Alpha virt. eigenvalues --    1.75564   1.75717   1.76536   1.77066   1.77296
 Alpha virt. eigenvalues --    1.77560   1.78057   1.78716   1.79455   1.79604
 Alpha virt. eigenvalues --    1.80087   1.80857   1.81092   1.81482   1.82070
 Alpha virt. eigenvalues --    1.82473   1.82771   1.82826   1.83154   1.83811
 Alpha virt. eigenvalues --    1.83988   1.84452   1.84981   1.85377   1.85764
 Alpha virt. eigenvalues --    1.86678   1.86930   1.87246   1.87625   1.87882
 Alpha virt. eigenvalues --    1.88247   1.88373   1.88774   1.89219   1.89986
 Alpha virt. eigenvalues --    1.90303   1.90675   1.91162   1.91498   1.92388
 Alpha virt. eigenvalues --    1.92540   1.93305   1.93929   1.94176   1.94840
 Alpha virt. eigenvalues --    1.95137   1.95893   1.96297   1.96463   1.97121
 Alpha virt. eigenvalues --    1.97873   1.98622   1.99164   1.99352   1.99720
 Alpha virt. eigenvalues --    2.00432   2.00796   2.01564   2.02078   2.02265
 Alpha virt. eigenvalues --    2.02995   2.03322   2.04162   2.04686   2.05156
 Alpha virt. eigenvalues --    2.05598   2.06268   2.06725   2.07299   2.07827
 Alpha virt. eigenvalues --    2.08126   2.08577   2.09781   2.09878   2.10258
 Alpha virt. eigenvalues --    2.11245   2.11948   2.12217   2.12811   2.13160
 Alpha virt. eigenvalues --    2.13522   2.14186   2.14762   2.15354   2.16008
 Alpha virt. eigenvalues --    2.16244   2.16994   2.17267   2.18091   2.19186
 Alpha virt. eigenvalues --    2.19875   2.20420   2.20828   2.21657   2.21828
 Alpha virt. eigenvalues --    2.22011   2.22823   2.23457   2.23663   2.24543
 Alpha virt. eigenvalues --    2.24775   2.25237   2.26434   2.26655   2.28106
 Alpha virt. eigenvalues --    2.28751   2.29073   2.29596   2.30556   2.30859
 Alpha virt. eigenvalues --    2.31126   2.31550   2.32552   2.33031   2.33585
 Alpha virt. eigenvalues --    2.33959   2.34121   2.34827   2.35155   2.35846
 Alpha virt. eigenvalues --    2.36250   2.36393   2.37218   2.37795   2.38139
 Alpha virt. eigenvalues --    2.38301   2.39024   2.39390   2.39708   2.40271
 Alpha virt. eigenvalues --    2.40771   2.41119   2.41925   2.42377   2.42986
 Alpha virt. eigenvalues --    2.43539   2.44280   2.44748   2.45478   2.45964
 Alpha virt. eigenvalues --    2.47016   2.47096   2.47416   2.48174   2.48368
 Alpha virt. eigenvalues --    2.48975   2.49955   2.50209   2.50526   2.50930
 Alpha virt. eigenvalues --    2.51790   2.52091   2.52796   2.52911   2.53943
 Alpha virt. eigenvalues --    2.54249   2.54953   2.55097   2.55632   2.55879
 Alpha virt. eigenvalues --    2.56421   2.56768   2.57445   2.57889   2.58178
 Alpha virt. eigenvalues --    2.58660   2.59172   2.59799   2.60366   2.60741
 Alpha virt. eigenvalues --    2.61655   2.61839   2.62358   2.62807   2.63097
 Alpha virt. eigenvalues --    2.63284   2.63640   2.64358   2.65055   2.65396
 Alpha virt. eigenvalues --    2.65595   2.65928   2.66206   2.66699   2.67113
 Alpha virt. eigenvalues --    2.67250   2.67644   2.67855   2.68631   2.68954
 Alpha virt. eigenvalues --    2.68984   2.69695   2.70599   2.70732   2.70886
 Alpha virt. eigenvalues --    2.70993   2.71613   2.72225   2.72503   2.73247
 Alpha virt. eigenvalues --    2.73548   2.73955   2.74233   2.74776   2.75087
 Alpha virt. eigenvalues --    2.75445   2.75632   2.76431   2.76553   2.77359
 Alpha virt. eigenvalues --    2.77937   2.78410   2.78557   2.79247   2.79423
 Alpha virt. eigenvalues --    2.80152   2.80381   2.80746   2.81103   2.81414
 Alpha virt. eigenvalues --    2.81815   2.82467   2.82799   2.82995   2.83455
 Alpha virt. eigenvalues --    2.84488   2.84679   2.85263   2.85854   2.86122
 Alpha virt. eigenvalues --    2.86683   2.87035   2.87481   2.87565   2.88026
 Alpha virt. eigenvalues --    2.88302   2.88745   2.89195   2.89479   2.89813
 Alpha virt. eigenvalues --    2.90448   2.90938   2.91058   2.91423   2.92425
 Alpha virt. eigenvalues --    2.92752   2.93172   2.93478   2.93866   2.94437
 Alpha virt. eigenvalues --    2.94760   2.95589   2.96170   2.96615   2.96833
 Alpha virt. eigenvalues --    2.97232   2.97691   2.97895   2.99496   2.99524
 Alpha virt. eigenvalues --    3.00018   3.00029   3.00489   3.00845   3.02090
 Alpha virt. eigenvalues --    3.02346   3.02521   3.03292   3.03910   3.04180
 Alpha virt. eigenvalues --    3.04612   3.05045   3.05603   3.06291   3.06487
 Alpha virt. eigenvalues --    3.07072   3.07666   3.08546   3.08796   3.09053
 Alpha virt. eigenvalues --    3.09394   3.09871   3.10243   3.10953   3.11591
 Alpha virt. eigenvalues --    3.11805   3.12198   3.13077   3.13722   3.13889
 Alpha virt. eigenvalues --    3.14368   3.14484   3.15089   3.15425   3.15737
 Alpha virt. eigenvalues --    3.16093   3.16237   3.16901   3.17934   3.18099
 Alpha virt. eigenvalues --    3.18297   3.18770   3.19435   3.19663   3.20225
 Alpha virt. eigenvalues --    3.20335   3.20871   3.21663   3.22127   3.22574
 Alpha virt. eigenvalues --    3.22619   3.23036   3.23525   3.23973   3.24084
 Alpha virt. eigenvalues --    3.24201   3.24679   3.25298   3.26080   3.26157
 Alpha virt. eigenvalues --    3.26894   3.27107   3.27803   3.28396   3.28866
 Alpha virt. eigenvalues --    3.29233   3.29313   3.29905   3.30051   3.30660
 Alpha virt. eigenvalues --    3.31021   3.31312   3.31637   3.32154   3.32224
 Alpha virt. eigenvalues --    3.33045   3.33340   3.33663   3.33909   3.34326
 Alpha virt. eigenvalues --    3.34511   3.35392   3.35594   3.36149   3.36581
 Alpha virt. eigenvalues --    3.36713   3.37090   3.37973   3.38321   3.38902
 Alpha virt. eigenvalues --    3.39017   3.39116   3.39930   3.40355   3.40816
 Alpha virt. eigenvalues --    3.40915   3.41110   3.41548   3.42186   3.42349
 Alpha virt. eigenvalues --    3.42486   3.43015   3.43337   3.43723   3.43838
 Alpha virt. eigenvalues --    3.44387   3.44691   3.44955   3.45693   3.45865
 Alpha virt. eigenvalues --    3.45886   3.46593   3.47550   3.47712   3.47889
 Alpha virt. eigenvalues --    3.48329   3.48479   3.48745   3.48992   3.49581
 Alpha virt. eigenvalues --    3.49949   3.50483   3.50618   3.50763   3.51318
 Alpha virt. eigenvalues --    3.52207   3.52653   3.52857   3.53146   3.53822
 Alpha virt. eigenvalues --    3.54206   3.54631   3.54827   3.55185   3.56026
 Alpha virt. eigenvalues --    3.56226   3.56802   3.57116   3.57335   3.58036
 Alpha virt. eigenvalues --    3.58100   3.59294   3.60058   3.60597   3.61119
 Alpha virt. eigenvalues --    3.61288   3.61646   3.62064   3.62768   3.63121
 Alpha virt. eigenvalues --    3.63803   3.64706   3.64843   3.65563   3.66083
 Alpha virt. eigenvalues --    3.66200   3.66539   3.67470   3.67864   3.68191
 Alpha virt. eigenvalues --    3.68762   3.69223   3.69812   3.70384   3.70636
 Alpha virt. eigenvalues --    3.71329   3.71836   3.72334   3.72640   3.73515
 Alpha virt. eigenvalues --    3.74601   3.75186   3.75329   3.75918   3.76328
 Alpha virt. eigenvalues --    3.77263   3.77840   3.78547   3.78900   3.79440
 Alpha virt. eigenvalues --    3.79930   3.80491   3.81071   3.81224   3.82379
 Alpha virt. eigenvalues --    3.83300   3.83323   3.84012   3.84289   3.85357
 Alpha virt. eigenvalues --    3.85673   3.85863   3.86345   3.87643   3.88488
 Alpha virt. eigenvalues --    3.89568   3.90240   3.91289   3.91563   3.92171
 Alpha virt. eigenvalues --    3.93031   3.94444   3.95274   3.95922   3.97417
 Alpha virt. eigenvalues --    3.98256   3.98744   3.99101   3.99942   4.00004
 Alpha virt. eigenvalues --    4.00650   4.01072   4.01829   4.03974   4.04141
 Alpha virt. eigenvalues --    4.04774   4.05716   4.06773   4.07128   4.08372
 Alpha virt. eigenvalues --    4.08758   4.08998   4.09304   4.09978   4.10397
 Alpha virt. eigenvalues --    4.10753   4.11671   4.13044   4.13626   4.13717
 Alpha virt. eigenvalues --    4.14166   4.14597   4.15237   4.15701   4.16411
 Alpha virt. eigenvalues --    4.16811   4.17322   4.18040   4.18128   4.18776
 Alpha virt. eigenvalues --    4.19256   4.19664   4.20073   4.20866   4.21614
 Alpha virt. eigenvalues --    4.21952   4.22195   4.22475   4.23222   4.23505
 Alpha virt. eigenvalues --    4.23961   4.24296   4.24971   4.25144   4.26276
 Alpha virt. eigenvalues --    4.27123   4.27275   4.27344   4.28064   4.28536
 Alpha virt. eigenvalues --    4.28671   4.29167   4.29693   4.30491   4.31157
 Alpha virt. eigenvalues --    4.31287   4.32004   4.32419   4.32812   4.33836
 Alpha virt. eigenvalues --    4.34115   4.35395   4.35954   4.36443   4.36718
 Alpha virt. eigenvalues --    4.37591   4.38130   4.39595   4.40504   4.40887
 Alpha virt. eigenvalues --    4.41311   4.42088   4.43035   4.43463   4.43980
 Alpha virt. eigenvalues --    4.45117   4.46047   4.46966   4.47391   4.48065
 Alpha virt. eigenvalues --    4.48340   4.48837   4.49320   4.50346   4.51578
 Alpha virt. eigenvalues --    4.51856   4.52833   4.54192   4.54974   4.55540
 Alpha virt. eigenvalues --    4.55834   4.57411   4.58054   4.58816   4.59939
 Alpha virt. eigenvalues --    4.60738   4.61091   4.62303   4.62994   4.63700
 Alpha virt. eigenvalues --    4.65438   4.66605   4.67361   4.68308   4.69640
 Alpha virt. eigenvalues --    4.69666   4.71647   4.72587   4.72986   4.74532
 Alpha virt. eigenvalues --    4.75964   4.76591   4.77296   4.77908   4.79267
 Alpha virt. eigenvalues --    4.79846   4.79987   4.81927   4.82427   4.82825
 Alpha virt. eigenvalues --    4.84213   4.85527   4.86906   4.87491   4.88354
 Alpha virt. eigenvalues --    4.89645   4.93828   4.95295   4.96387   4.97017
 Alpha virt. eigenvalues --    4.98321   4.99486   5.01508   5.02009   5.02573
 Alpha virt. eigenvalues --    5.03964   5.05442   5.05616   5.06822   5.07862
 Alpha virt. eigenvalues --    5.08529   5.09759   5.10710   5.12566   5.15612
 Alpha virt. eigenvalues --    5.16552   5.18680   5.19085   5.20603   5.20840
 Alpha virt. eigenvalues --    5.23221   5.23542   5.25092   5.25731   5.27491
 Alpha virt. eigenvalues --    5.29592   5.30002   5.31246   5.32305   5.37089
 Alpha virt. eigenvalues --    5.37829   5.42892   5.45588   5.46843   5.49281
 Alpha virt. eigenvalues --    5.51109   5.51664   5.56003   5.57048   5.60833
 Alpha virt. eigenvalues --    5.61605   5.62386   5.65168   5.67513   5.72085
 Alpha virt. eigenvalues --    5.73373   5.75863   5.79159   5.86530   5.90377
 Alpha virt. eigenvalues --    5.94599   6.00527   6.13601   6.28361   6.39194
 Alpha virt. eigenvalues --    7.29583   7.81621   7.83270  15.68075  22.37574
 Alpha virt. eigenvalues --   22.42258  22.46222  22.48249  22.50118  22.54454
 Alpha virt. eigenvalues --   22.56041  22.58111  22.60128  22.68905  22.83016
 Alpha virt. eigenvalues --   22.84419  22.85015  22.87473  22.89725  22.90770
 Alpha virt. eigenvalues --   22.92359  22.93975  22.95926  22.98919  22.99153
 Alpha virt. eigenvalues --   23.02206  23.04574  23.10571  23.16669  23.22323
 Alpha virt. eigenvalues --   23.28038  23.32258  23.39260  23.57316  23.89575
 Alpha virt. eigenvalues --   33.01746  33.36965
          Condensed to atoms (all electrons):
 Mulliken charges:
               1
     1  C   -0.093972
     2  C   -0.403275
     3  C    0.199339
     4  C   -0.152067
     5  C   -0.212655
     6  C   -0.178696
     7  C   -0.015815
     8  B   -0.340105
     9  C   -0.356605
    10  C    0.154750
    11  C   -0.358688
    12  C   -0.357568
    13  C   -0.384445
    14  C    0.154098
    15  C   -0.295530
    16  C    0.249940
    17  Br  -0.114458
    18  C   -0.319548
    19  C    0.230925
    20  Br  -0.113646
    21  C   -0.292244
    22  C    0.012372
    23  C    0.223939
    24  C    0.290765
    25  C   -0.395216
    26  C   -0.069646
    27  C   -0.176975
    28  C   -0.235641
    29  C    0.085538
    30  C   -0.405140
    31  C   -0.046183
    32  N    0.186770
    33  C   -0.110289
    34  C   -0.110485
    35  C   -0.104591
    36  N    0.155687
    37  H    0.118869
    38  H    0.120310
    39  H    0.110987
    40  H    0.105515
    41  H    0.113142
    42  H    0.097255
    43  H    0.119450
    44  H    0.103161
    45  H    0.112744
    46  H    0.134915
    47  H    0.116280
    48  H    0.110081
    49  H    0.112002
    50  H    0.113190
    51  H    0.100997
    52  H    0.148103
    53  H    0.138331
    54  H    0.136373
    55  H    0.169114
    56  H    0.140601
    57  H    0.123531
    58  H    0.119531
    59  H    0.114231
    60  H    0.152929
    61  H    0.134305
    62  H    0.149664
    63  H    0.163502
    64  H    0.148734
    65  H    0.171512
 Sum of Mulliken charges =  -0.00000
 Mulliken charges with hydrogens summed into heavy atoms:
               1
     1  C    0.024897
     2  C   -0.282965
     3  C    0.199339
     4  C   -0.041080
     5  C   -0.107140
     6  C   -0.065554
     7  C   -0.015815
     8  B   -0.340105
     9  C   -0.139900
    10  C    0.154750
    11  C   -0.007868
    12  C   -0.019205
    13  C   -0.022155
    14  C    0.154098
    15  C   -0.157199
    16  C    0.249940
    17  Br  -0.114458
    18  C   -0.183175
    19  C    0.230925
    20  Br  -0.113646
    21  C   -0.123129
    22  C    0.012372
    23  C    0.223939
    24  C    0.290765
    25  C   -0.254614
    26  C    0.053885
    27  C   -0.057444
    28  C   -0.121410
    29  C    0.085538
    30  C    0.031757
    31  C   -0.046183
    32  N    0.186770
    33  C    0.053214
    34  C    0.038249
    35  C    0.066921
    36  N    0.155687
 Electronic spatial extent (au):  <R**2>=          16759.6666
 Charge=             -0.0000 electrons
 Dipole moment (field-independent basis, Debye):
    X=             -2.8843    Y=             -0.6452    Z=             -5.3150  Tot=              6.0815
 Quadrupole moment (field-independent basis, Debye-Ang):
   XX=           -238.6937   YY=           -225.8243   ZZ=           -225.2538
   XY=              2.5187   XZ=              2.2701   YZ=              7.3092
 Traceless Quadrupole moment (field-independent basis, Debye-Ang):
   XX=             -8.7698   YY=              4.0996   ZZ=              4.6702
   XY=              2.5187   XZ=              2.2701   YZ=              7.3092
 Octapole moment (field-independent basis, Debye-Ang**2):
  XXX=            129.3689  YYY=             87.2774  ZZZ=            -56.0584  XYY=             40.1377
  XXY=             49.0846  XXZ=              0.4670  XZZ=             46.0583  YZZ=              5.0177
  YYZ=            -22.9794  XYZ=            -12.9079
 Hexadecapole moment (field-independent basis, Debye-Ang**3):
 XXXX=          -8815.0491 YYYY=          -6787.1405 ZZZZ=          -4971.1584 XXXY=             73.9703
 XXXZ=            -67.5632 YYYX=            113.8564 YYYZ=            461.5383 ZZZX=             26.6991
 ZZZY=            371.6519 XXYY=          -2576.3867 XXZZ=          -2345.6880 YYZZ=          -1964.9456
 XXYZ=             44.8761 YYXZ=            -46.7769 ZZXY=            102.5732
 N-N= 5.369802752126D+03 E-N=-2.613600419442D+04  KE= 6.465996250911D+03
 No NMR shielding tensors so no spin-rotation constants.
 Leave Link  601 at Thu Jan 23 21:22:09 2025, MaxMem=  3221225472 cpu:              26.4 elap:               1.4
 (Enter /software/gaussian/G16-C.01/avx2/g16/l9999.exe)
 Unable to Open any file for archive entry.
 1\1\GINC-NODE30\SP\RPBE1PBE\def2TZVP\C31H29B1Br2N2\LAPLAZA\23-Jan-2025
 \0\\#p def2tzvp pbe1pbe integral=ultrafinegrid geom=allcheck guess=rea
 d em=gd3bj\\neutral\\0,1\C,0,-3.9526985461,-1.8161030569,2.5786856329\
 C,0,-3.4918230525,-2.4556013644,1.4935196806\C,0,-2.074065109,-2.52232
 31513,1.070636675\C,0,-1.4754649924,-3.7877673703,1.1052069993\C,0,-0.
 1522257053,-3.9506247409,0.7236518007\C,0,0.568782366,-2.854327257,0.2
 591625425\C,0,0.0154900504,-1.5714709242,0.1750746952\B,0,0.8118453598
 ,-0.39169699,-0.6422564613\C,0,2.3029685872,-0.7634599833,-1.200454158
 6\C,0,3.5756440177,-0.6046556812,-0.3265511513\C,0,3.412779715,-1.2006
 618484,1.0742836307\C,0,4.7231369272,-1.3348335863,-1.0355742156\C,0,3
 .9799253268,0.8676085753,-0.1808876455\C,0,0.7828707445,1.0999075382,-
 0.0074224619\C,0,0.9337322513,2.214548818,-0.8445193852\C,0,0.94045343
 3,3.501701603,-0.3203301174\Br,0,1.0916631188,4.9828425638,-1.49227451
 98\C,0,0.8147391127,3.7364506884,1.047476608\C,0,0.6754983962,2.623390
 8942,1.8731498013\Br,0,0.4387146788,2.8941947222,3.7329646422\C,0,0.66
 33427708,1.3265308891,1.368245849\C,0,-1.3283165007,-1.4175580656,0.61
 2688542\C,0,-1.9633632717,-0.0724284282,0.5234392819\C,0,-2.4118374843
 ,0.627676767,1.6595646099\C,0,-2.4118928036,0.0767599331,3.0303735266\
 C,0,-3.1361490975,-0.9719900039,3.448182419\C,0,-2.8098912413,1.962475
 5771,1.5229529948\C,0,-2.8014840824,2.6071392177,0.2958784299\C,0,-2.3
 739261418,1.9454695531,-0.8552701714\C,0,-2.2936048408,2.6685038592,-2
 .1663779232\C,0,-1.9704789794,0.6112618884,-0.7043683849\N,0,-1.445822
 8033,-0.0476311119,-1.8576215905\C,0,-2.0962317137,-0.3636013943,-2.99
 32697579\C,0,-1.1722023805,-0.8938144526,-3.8766108734\C,0,0.042374995
 7,-0.8704496301,-3.1806267049\N,0,-0.1413692995,-0.3507293612,-1.96959
 49201\H,0,-4.9979664251,-1.9707544137,2.872379991\H,0,-4.1861776339,-3
 .0998493818,0.9408911986\H,0,-2.0643584378,-4.6437096781,1.4451010555\
 H,0,0.314660164,-4.9379500525,0.7672810976\H,0,1.5931827184,-3.0128042
 529,-0.0782544365\H,0,2.4814148832,-0.1400905072,-2.0980792872\H,0,2.2
 915131121,-1.8025371899,-1.5797744225\H,0,3.2414543265,-2.2866651276,1
 .0434711061\H,0,4.3240969739,-1.0292663996,1.6698121268\H,0,2.57080810
 38,-0.7443735687,1.6144480908\H,0,5.6662900683,-1.2393038816,-0.473115
 7804\H,0,4.5039615779,-2.4096072354,-1.1450087447\H,0,4.8909354944,-0.
 9223150318,-2.0439352765\H,0,4.9662634187,0.9422646165,0.3053458524\H,
 0,4.0518449545,1.3621266533,-1.1631265721\H,0,3.2664184956,1.437364930
 6,0.4276893572\H,0,1.0455882388,2.0792320278,-1.9230559345\H,0,0.81085
 42303,4.7480758264,1.4522924386\H,0,0.5318613986,0.4833727314,2.050040
 9666\H,0,-1.8683423766,0.6716820362,3.7734726981\H,0,-3.1646895757,-1.
 1869595929,4.5230667607\H,0,-3.1092400952,2.5123319137,2.4183054006\H,
 0,-3.0942310491,3.6573721771,0.2292291797\H,0,-1.3951996231,2.38669725
 15,-2.7332220245\H,0,-3.1668893771,2.4609363214,-2.8063147429\H,0,-2.2
 541079217,3.7531215378,-2.0000241784\H,0,-3.1644356285,-0.1830666455,-
 3.0823824916\H,0,-1.3524253789,-1.2570808817,-4.8841847327\H,0,1.02783
 66875,-1.2183165387,-3.4774202247\\Version=ES64L-G16RevC.01\State=1-A\
 HF=-6479.8027451\RMSD=6.378e-09\Dipole=-1.773216,-0.675941,-1.4572578\
 Quadrupole=-2.7926872,-4.8374397,7.6301269,-1.2935422,2.2820478,4.0279
 448\PG=C01 [X(C31H29B1Br2N2)]\\@
 The archive entry for this job was punched.


 BLESSED ARE THOSE WHO NOUGHT EXPECT,
 FOR THEY SHALL NOT BE DISAPPOINTED..  WALCOT - ODE TO PITT
 Job cpu time:       0 days 10 hours 18 minutes 56.5 seconds.
 Elapsed time:       0 days  0 hours 25 minutes 53.6 seconds.
 File lengths (MBytes):  RWF=    898 Int=      0 D2E=      0 Chk=    121 Scr=      1
 Normal termination of Gaussian 16 at Thu Jan 23 21:22:09 2025.
