 Entering Gaussian System, Link 0=g16
 Input=with_proton.com
 Output=with_proton.log
 Initial command:
 /software/gaussian/G16-C.01/avx2/g16/l1.exe "/scratch/laplaza/9953606.slurm/Gau-30508.inp" -scrdir="/scratch/laplaza/9953606.slurm/"
 Entering Link 1 = /software/gaussian/G16-C.01/avx2/g16/l1.exe PID=     30509.
  
 Copyright (c) 1988-2019, Gaussian, Inc.  All Rights Reserved.
  
 This is part of the Gaussian(R) 16 program.  It is based on
 the Gaussian(R) 09 system (copyright 2009, Gaussian, Inc.),
 the Gaussian(R) 03 system (copyright 2003, Gaussian, Inc.),
 the Gaussian(R) 98 system (copyright 1998, Gaussian, Inc.),
 the Gaussian(R) 94 system (copyright 1995, Gaussian, Inc.),
 the Gaussian 92(TM) system (copyright 1992, Gaussian, Inc.),
 the Gaussian 90(TM) system (copyright 1990, Gaussian, Inc.),
 the Gaussian 88(TM) system (copyright 1988, Gaussian, Inc.),
 the Gaussian 86(TM) system (copyright 1986, Carnegie Mellon
 University), and the Gaussian 82(TM) system (copyright 1983,
 Carnegie Mellon University). Gaussian is a federally registered
 trademark of Gaussian, Inc.
  
 This software contains proprietary and confidential information,
 including trade secrets, belonging to Gaussian, Inc.
  
 This software is provided under written license and may be
 used, copied, transmitted, or stored only in accord with that
 written license.
  
 The following legend is applicable only to US Government
 contracts under FAR:
  
                    RESTRICTED RIGHTS LEGEND
  
 Use, reproduction and disclosure by the US Government is
 subject to restrictions as set forth in subparagraphs (a)
 and (c) of the Commercial Computer Software - Restricted
 Rights clause in FAR 52.227-19.
  
 Gaussian, Inc.
 340 Quinnipiac St., Bldg. 40, Wallingford CT 06492
  
  
 ---------------------------------------------------------------
 Warning -- This program may not be used in any manner that
 competes with the business of Gaussian, Inc. or will provide
 assistance to any competitor of Gaussian, Inc.  The licensee
 of this program is prohibited from giving any competitor of
 Gaussian, Inc. access to this program.  By using this program,
 the user acknowledges that Gaussian, Inc. is engaged in the
 business of creating and licensing software in the field of
 computational chemistry and represents and warrants to the
 licensee that it is not a competitor of Gaussian, Inc. and that
 it will not use this program in any manner prohibited above.
 ---------------------------------------------------------------
  

 Cite this work as:
 Gaussian 16, Revision C.01,
 M. J. Frisch, G. W. Trucks, H. B. Schlegel, G. E. Scuseria, 
 M. A. Robb, J. R. Cheeseman, G. Scalmani, V. Barone, 
 G. A. Petersson, H. Nakatsuji, X. Li, M. Caricato, A. V. Marenich, 
 J. Bloino, B. G. Janesko, R. Gomperts, B. Mennucci, H. P. Hratchian, 
 J. V. Ortiz, A. F. Izmaylov, J. L. Sonnenberg, D. Williams-Young, 
 F. Ding, F. Lipparini, F. Egidi, J. Goings, B. Peng, A. Petrone, 
 T. Henderson, D. Ranasinghe, V. G. Zakrzewski, J. Gao, N. Rega, 
 G. Zheng, W. Liang, M. Hada, M. Ehara, K. Toyota, R. Fukuda, 
 J. Hasegawa, M. Ishida, T. Nakajima, Y. Honda, O. Kitao, H. Nakai, 
 T. Vreven, K. Throssell, J. A. Montgomery, Jr., J. E. Peralta, 
 F. Ogliaro, M. J. Bearpark, J. J. Heyd, E. N. Brothers, K. N. Kudin, 
 V. N. Staroverov, T. A. Keith, R. Kobayashi, J. Normand, 
 K. Raghavachari, A. P. Rendell, J. C. Burant, S. S. Iyengar, 
 J. Tomasi, M. Cossi, J. M. Millam, M. Klene, C. Adamo, R. Cammi, 
 J. W. Ochterski, R. L. Martin, K. Morokuma, O. Farkas, 
 J. B. Foresman, and D. J. Fox, Gaussian, Inc., Wallingford CT, 2019.
 
 ******************************************
 Gaussian 16:  ES64L-G16RevC.01  3-Jul-2019
                24-Jan-2025 
 ******************************************
 %nprocshared=24
 Will use up to   24 processors via shared memory.
 %mem=24GB
 %chk=with_proton.chk
 -------------------------------------------------------------------
 #p opt freq=noraman def2svp pbe1pbe em=gd3bj integral=ultrafinegrid
 -------------------------------------------------------------------
 1/18=20,19=15,26=4,38=1/1,3;
 2/9=110,12=2,17=6,18=5,40=1/2;
 3/5=43,7=101,11=2,25=1,30=1,71=1,74=-13,75=-5,124=41/1,2,3;
 4//1;
 5/5=2,38=5/2;
 6/7=2,8=2,9=2,10=2,28=1/1;
 7//1,2,3,16;
 1/18=20,19=15,26=4/3(2);
 2/9=110/2;
 99//99;
 2/9=110/2;
 3/5=43,7=101,11=2,25=1,30=1,71=1,74=-13,75=-5,124=41/1,2,3;
 4/5=5,16=3,69=1/1;
 5/5=2,38=5/2;
 7//1,2,3,16;
 1/18=20,19=15,26=4/3(-5);
 2/9=110/2;
 6/7=2,8=2,9=2,10=2,19=2,28=1/1;
 99/9=1/99;
 Leave Link    1 at Fri Jan 24 16:52:24 2025, MaxMem=  3221225472 cpu:               1.8 elap:               0.1
 (Enter /software/gaussian/G16-C.01/avx2/g16/l101.exe)
 -----------
 with_proton
 -----------
 Symbolic Z-matrix:
 Charge =  1 Multiplicity = 1
 C                    -4.13939  -1.34132   2.20881 
 C                    -3.63145  -2.09961   1.21632 
 C                    -2.18325  -2.29125   1.00126 
 C                    -1.69908  -3.60931   1.09235 
 C                    -0.35156  -3.88314   0.87593 
 C                     0.51624  -2.8344    0.59832 
 C                     0.05238  -1.51608   0.4977 
 B                     1.12799  -0.36635   0.12256 
 C                     2.23374  -0.63252  -1.02486 
 C                     3.73926  -0.58428  -0.57696 
 C                     4.03211  -1.60619   0.51816 
 C                     4.5976   -0.88705  -1.81932 
 C                     4.12587   0.80436  -0.0706 
 C                     0.9807    1.07971   0.76731 
 C                     1.01488   2.21507  -0.06046 
 C                     0.84365   3.4812    0.53031 
 Br                    0.8557    5.01557  -0.59481 
 C                     0.6639    3.61185   1.9053 
 C                     0.65488   2.49264   2.70634 
 Br                    0.3994    2.67205   4.60934 
 C                     0.78865   1.21036   2.13865 
 C                    -1.3409   -1.2268    0.67616 
 C                    -1.90539   0.11959   0.3708 
 C                    -2.39827   0.92136   1.43493 
 C                    -2.50761   0.43753   2.77972 
 C                    -3.30117  -0.58779   3.15516 
 C                    -2.7303    2.23085   1.1685 
 C                    -2.65674   2.78631  -0.12263 
 C                    -2.27246   1.96041  -1.18302 
 C                    -2.21988   2.55683  -2.56795 
 C                    -1.87577   0.63479  -0.96279 
 N                    -1.44019  -0.20581  -2.06353 
 C                    -1.91239  -1.41696  -2.36911 
 C                    -1.22392  -1.89825  -3.4687 
 C                    -0.32911  -0.88525  -3.76814 
 N                    -0.47218   0.15609  -2.89223 
 H                    -5.2074   -1.37736   2.37 
 H                    -4.33347  -2.71168   0.67426 
 H                    -2.37074  -4.42392   1.33473 
 H                     0.00682  -4.86578   0.98066 
 H                     1.57352  -3.07356   0.4727 
 H                     2.05777   0.11061  -1.80266 
 H                     2.01967  -1.632    -1.46542 
 H                     3.83644  -2.66656   0.14335 
 H                     5.09551  -1.56836   0.81287 
 H                     3.43417  -1.45639   1.42007 
 H                     5.6962   -0.89432  -1.54099 
 H                     4.37874  -1.91729  -2.21151 
 H                     4.44089  -0.13807  -2.62287 
 H                     5.2092    0.89984   0.09911 
 H                     3.82849   1.61141  -0.79295 
 H                     3.6484    1.04189   0.91315 
 H                     1.15774   2.13774  -1.12943 
 H                     0.54711   4.5911    2.34352 
 H                     0.77638   0.33031   2.7997 
 H                    -2.03999   1.01043   3.61248 
 H                    -3.46148  -0.78845   4.204 
 H                    -3.07118   2.8897    1.98318 
 H                    -2.92838   3.81613  -0.27781 
 H                    -1.15962   2.80691  -2.81171 
 H                    -2.63094   1.83967  -3.32669 
 H                    -2.82446   3.48909  -2.62321 
 H                    -2.71079  -1.93257  -1.85978 
 H                    -1.36801  -2.83154  -3.96896 
 H                     0.3955   -0.89653  -4.57254 
 H                     0.09348   1.09931  -2.87338 
 
 ITRead=  0  0  0  0  0  0  0  0  0  0  0  0  0  0  0  0  0  0  0  0
 ITRead=  0  0  0  0  0  0  0  0  0  0  0  0  0  0  0  0  0  0  0  0
 ITRead=  0  0  0  0  0  0  0  0  0  0  0  0  0  0  0  0  0  0  0  0
 ITRead=  0  0  0  0  0  0
 MicOpt= -1 -1 -1 -1 -1 -1 -1 -1 -1 -1 -1 -1 -1 -1 -1 -1 -1 -1 -1 -1
 MicOpt= -1 -1 -1 -1 -1 -1 -1 -1 -1 -1 -1 -1 -1 -1 -1 -1 -1 -1 -1 -1
 MicOpt= -1 -1 -1 -1 -1 -1 -1 -1 -1 -1 -1 -1 -1 -1 -1 -1 -1 -1 -1 -1
 MicOpt= -1 -1 -1 -1 -1 -1
 NAtoms=     66 NQM=       66 NQMF=       0 NMMI=      0 NMMIF=      0
                NMic=       0 NMicF=      0.
                    Isotopes and Nuclear Properties:
 (Nuclear quadrupole moments (NQMom) in fm**2, nuclear magnetic moments (NMagM)
  in nuclear magnetons)

  Atom         1           2           3           4           5           6           7           8           9          10
 IAtWgt=          12          12          12          12          12          12          12          11          12          12
 AtmWgt=  12.0000000  12.0000000  12.0000000  12.0000000  12.0000000  12.0000000  12.0000000  11.0093053  12.0000000  12.0000000
 NucSpn=           0           0           0           0           0           0           0           3           0           0
 AtZEff=  -0.0000000  -0.0000000  -0.0000000  -0.0000000  -0.0000000  -0.0000000  -0.0000000  -0.0000000  -0.0000000  -0.0000000
 NQMom=    0.0000000   0.0000000   0.0000000   0.0000000   0.0000000   0.0000000   0.0000000   4.0590000   0.0000000   0.0000000
 NMagM=    0.0000000   0.0000000   0.0000000   0.0000000   0.0000000   0.0000000   0.0000000   2.6886370   0.0000000   0.0000000
 AtZNuc=   6.0000000   6.0000000   6.0000000   6.0000000   6.0000000   6.0000000   6.0000000   5.0000000   6.0000000   6.0000000

  Atom        11          12          13          14          15          16          17          18          19          20
 IAtWgt=          12          12          12          12          12          12          79          12          12          79
 AtmWgt=  12.0000000  12.0000000  12.0000000  12.0000000  12.0000000  12.0000000  78.9183361  12.0000000  12.0000000  78.9183361
 NucSpn=           0           0           0           0           0           0           3           0           0           3
 AtZEff=  -0.0000000  -0.0000000  -0.0000000  -0.0000000  -0.0000000  -0.0000000  -0.0000000  -0.0000000  -0.0000000  -0.0000000
 NQMom=    0.0000000   0.0000000   0.0000000   0.0000000   0.0000000   0.0000000  31.3000000   0.0000000   0.0000000  31.3000000
 NMagM=    0.0000000   0.0000000   0.0000000   0.0000000   0.0000000   0.0000000   2.1063990   0.0000000   0.0000000   2.1063990
 AtZNuc=   6.0000000   6.0000000   6.0000000   6.0000000   6.0000000   6.0000000  35.0000000   6.0000000   6.0000000  35.0000000

  Atom        21          22          23          24          25          26          27          28          29          30
 IAtWgt=          12          12          12          12          12          12          12          12          12          12
 AtmWgt=  12.0000000  12.0000000  12.0000000  12.0000000  12.0000000  12.0000000  12.0000000  12.0000000  12.0000000  12.0000000
 NucSpn=           0           0           0           0           0           0           0           0           0           0
 AtZEff=  -0.0000000  -0.0000000  -0.0000000  -0.0000000  -0.0000000  -0.0000000  -0.0000000  -0.0000000  -0.0000000  -0.0000000
 NQMom=    0.0000000   0.0000000   0.0000000   0.0000000   0.0000000   0.0000000   0.0000000   0.0000000   0.0000000   0.0000000
 NMagM=    0.0000000   0.0000000   0.0000000   0.0000000   0.0000000   0.0000000   0.0000000   0.0000000   0.0000000   0.0000000
 AtZNuc=   6.0000000   6.0000000   6.0000000   6.0000000   6.0000000   6.0000000   6.0000000   6.0000000   6.0000000   6.0000000

  Atom        31          32          33          34          35          36          37          38          39          40
 IAtWgt=          12          14          12          12          12          14           1           1           1           1
 AtmWgt=  12.0000000  14.0030740  12.0000000  12.0000000  12.0000000  14.0030740   1.0078250   1.0078250   1.0078250   1.0078250
 NucSpn=           0           2           0           0           0           2           1           1           1           1
 AtZEff=  -0.0000000  -0.0000000  -0.0000000  -0.0000000  -0.0000000  -0.0000000  -0.0000000  -0.0000000  -0.0000000  -0.0000000
 NQMom=    0.0000000   2.0440000   0.0000000   0.0000000   0.0000000   2.0440000   0.0000000   0.0000000   0.0000000   0.0000000
 NMagM=    0.0000000   0.4037610   0.0000000   0.0000000   0.0000000   0.4037610   2.7928460   2.7928460   2.7928460   2.7928460
 AtZNuc=   6.0000000   7.0000000   6.0000000   6.0000000   6.0000000   7.0000000   1.0000000   1.0000000   1.0000000   1.0000000

  Atom        41          42          43          44          45          46          47          48          49          50
 IAtWgt=           1           1           1           1           1           1           1           1           1           1
 AtmWgt=   1.0078250   1.0078250   1.0078250   1.0078250   1.0078250   1.0078250   1.0078250   1.0078250   1.0078250   1.0078250
 NucSpn=           1           1           1           1           1           1           1           1           1           1
 AtZEff=  -0.0000000  -0.0000000  -0.0000000  -0.0000000  -0.0000000  -0.0000000  -0.0000000  -0.0000000  -0.0000000  -0.0000000
 NQMom=    0.0000000   0.0000000   0.0000000   0.0000000   0.0000000   0.0000000   0.0000000   0.0000000   0.0000000   0.0000000
 NMagM=    2.7928460   2.7928460   2.7928460   2.7928460   2.7928460   2.7928460   2.7928460   2.7928460   2.7928460   2.7928460
 AtZNuc=   1.0000000   1.0000000   1.0000000   1.0000000   1.0000000   1.0000000   1.0000000   1.0000000   1.0000000   1.0000000

  Atom        51          52          53          54          55          56          57          58          59          60
 IAtWgt=           1           1           1           1           1           1           1           1           1           1
 AtmWgt=   1.0078250   1.0078250   1.0078250   1.0078250   1.0078250   1.0078250   1.0078250   1.0078250   1.0078250   1.0078250
 NucSpn=           1           1           1           1           1           1           1           1           1           1
 AtZEff=  -0.0000000  -0.0000000  -0.0000000  -0.0000000  -0.0000000  -0.0000000  -0.0000000  -0.0000000  -0.0000000  -0.0000000
 NQMom=    0.0000000   0.0000000   0.0000000   0.0000000   0.0000000   0.0000000   0.0000000   0.0000000   0.0000000   0.0000000
 NMagM=    2.7928460   2.7928460   2.7928460   2.7928460   2.7928460   2.7928460   2.7928460   2.7928460   2.7928460   2.7928460
 AtZNuc=   1.0000000   1.0000000   1.0000000   1.0000000   1.0000000   1.0000000   1.0000000   1.0000000   1.0000000   1.0000000

  Atom        61          62          63          64          65          66
 IAtWgt=           1           1           1           1           1           1
 AtmWgt=   1.0078250   1.0078250   1.0078250   1.0078250   1.0078250   1.0078250
 NucSpn=           1           1           1           1           1           1
 AtZEff=  -0.0000000  -0.0000000  -0.0000000  -0.0000000  -0.0000000  -0.0000000
 NQMom=    0.0000000   0.0000000   0.0000000   0.0000000   0.0000000   0.0000000
 NMagM=    2.7928460   2.7928460   2.7928460   2.7928460   2.7928460   2.7928460
 AtZNuc=   1.0000000   1.0000000   1.0000000   1.0000000   1.0000000   1.0000000
 Leave Link  101 at Fri Jan 24 16:52:24 2025, MaxMem=  3221225472 cpu:              15.4 elap:               0.6
 (Enter /software/gaussian/G16-C.01/avx2/g16/l103.exe)

 GradGradGradGradGradGradGradGradGradGradGradGradGradGradGradGradGradGrad
 Berny optimization.
 Initialization pass.
                           ----------------------------
                           !    Initial Parameters    !
                           ! (Angstroms and Degrees)  !
 --------------------------                            --------------------------
 ! Name  Definition              Value          Derivative Info.                !
 --------------------------------------------------------------------------------
 ! R1    R(1,2)                  1.3483         estimate D2E/DX2                !
 ! R2    R(1,26)                 1.4717         estimate D2E/DX2                !
 ! R3    R(1,37)                 1.0807         estimate D2E/DX2                !
 ! R4    R(2,3)                  1.4766         estimate D2E/DX2                !
 ! R5    R(2,38)                 1.0776         estimate D2E/DX2                !
 ! R6    R(3,4)                  1.4071         estimate D2E/DX2                !
 ! R7    R(3,22)                 1.3958         estimate D2E/DX2                !
 ! R8    R(4,5)                  1.392          estimate D2E/DX2                !
 ! R9    R(4,39)                 1.0833         estimate D2E/DX2                !
 ! R10   R(5,6)                  1.3892         estimate D2E/DX2                !
 ! R11   R(5,40)                 1.0512         estimate D2E/DX2                !
 ! R12   R(6,7)                  1.4012         estimate D2E/DX2                !
 ! R13   R(6,41)                 1.0912         estimate D2E/DX2                !
 ! R14   R(7,8)                  1.6185         estimate D2E/DX2                !
 ! R15   R(7,22)                 1.4341         estimate D2E/DX2                !
 ! R16   R(8,9)                  1.6156         estimate D2E/DX2                !
 ! R17   R(8,14)                 1.5901         estimate D2E/DX2                !
 ! R18   R(9,10)                 1.5715         estimate D2E/DX2                !
 ! R19   R(9,42)                 1.09           estimate D2E/DX2                !
 ! R20   R(9,43)                 1.113          estimate D2E/DX2                !
 ! R21   R(10,11)                1.5262         estimate D2E/DX2                !
 ! R22   R(10,12)                1.5401         estimate D2E/DX2                !
 ! R23   R(10,13)                1.5278         estimate D2E/DX2                !
 ! R24   R(11,44)                1.1416         estimate D2E/DX2                !
 ! R25   R(11,45)                1.1041         estimate D2E/DX2                !
 ! R26   R(11,46)                1.0924         estimate D2E/DX2                !
 ! R27   R(12,47)                1.1333         estimate D2E/DX2                !
 ! R28   R(12,48)                1.1239         estimate D2E/DX2                !
 ! R29   R(12,49)                1.1096         estimate D2E/DX2                !
 ! R30   R(13,50)                1.1007         estimate D2E/DX2                !
 ! R31   R(13,51)                1.1232         estimate D2E/DX2                !
 ! R32   R(13,52)                1.119          estimate D2E/DX2                !
 ! R33   R(14,15)                1.4055         estimate D2E/DX2                !
 ! R34   R(14,21)                1.3909         estimate D2E/DX2                !
 ! R35   R(15,16)                1.4076         estimate D2E/DX2                !
 ! R36   R(15,53)                1.0812         estimate D2E/DX2                !
 ! R37   R(16,17)                1.9027         estimate D2E/DX2                !
 ! R38   R(16,18)                1.3928         estimate D2E/DX2                !
 ! R39   R(18,19)                1.3764         estimate D2E/DX2                !
 ! R40   R(18,54)                1.0792         estimate D2E/DX2                !
 ! R41   R(19,20)                1.9284         estimate D2E/DX2                !
 ! R42   R(19,21)                1.4087         estimate D2E/DX2                !
 ! R43   R(21,55)                1.1007         estimate D2E/DX2                !
 ! R44   R(22,23)                1.4915         estimate D2E/DX2                !
 ! R45   R(23,24)                1.4206         estimate D2E/DX2                !
 ! R46   R(23,31)                1.43           estimate D2E/DX2                !
 ! R47   R(24,25)                1.4334         estimate D2E/DX2                !
 ! R48   R(24,27)                1.377          estimate D2E/DX2                !
 ! R49   R(25,26)                1.3498         estimate D2E/DX2                !
 ! R50   R(25,56)                1.1137         estimate D2E/DX2                !
 ! R51   R(26,57)                1.0798         estimate D2E/DX2                !
 ! R52   R(27,28)                1.4075         estimate D2E/DX2                !
 ! R53   R(27,58)                1.1018         estimate D2E/DX2                !
 ! R54   R(28,29)                1.3979         estimate D2E/DX2                !
 ! R55   R(28,59)                1.0763         estimate D2E/DX2                !
 ! R56   R(29,30)                1.5088         estimate D2E/DX2                !
 ! R57   R(29,31)                1.4011         estimate D2E/DX2                !
 ! R58   R(30,60)                1.1163         estimate D2E/DX2                !
 ! R59   R(30,61)                1.122          estimate D2E/DX2                !
 ! R60   R(30,62)                1.1125         estimate D2E/DX2                !
 ! R61   R(31,32)                1.4519         estimate D2E/DX2                !
 ! R62   R(32,33)                1.3354         estimate D2E/DX2                !
 ! R63   R(32,36)                1.3247         estimate D2E/DX2                !
 ! R64   R(33,34)                1.3837         estimate D2E/DX2                !
 ! R65   R(33,63)                1.0783         estimate D2E/DX2                !
 ! R66   R(34,35)                1.3844         estimate D2E/DX2                !
 ! R67   R(34,64)                1.0687         estimate D2E/DX2                !
 ! R68   R(35,36)                1.3682         estimate D2E/DX2                !
 ! R69   R(35,65)                1.0827         estimate D2E/DX2                !
 ! R70   R(36,66)                1.1            estimate D2E/DX2                !
 ! A1    A(2,1,26)             123.1409         estimate D2E/DX2                !
 ! A2    A(2,1,37)             117.6013         estimate D2E/DX2                !
 ! A3    A(26,1,37)            118.9486         estimate D2E/DX2                !
 ! A4    A(1,2,3)              123.3446         estimate D2E/DX2                !
 ! A5    A(1,2,38)             116.3769         estimate D2E/DX2                !
 ! A6    A(3,2,38)             119.4685         estimate D2E/DX2                !
 ! A7    A(2,3,4)              116.7191         estimate D2E/DX2                !
 ! A8    A(2,3,22)             121.7921         estimate D2E/DX2                !
 ! A9    A(4,3,22)             121.4503         estimate D2E/DX2                !
 ! A10   A(3,4,5)              120.4836         estimate D2E/DX2                !
 ! A11   A(3,4,39)             120.3671         estimate D2E/DX2                !
 ! A12   A(5,4,39)             119.1491         estimate D2E/DX2                !
 ! A13   A(4,5,6)              119.1609         estimate D2E/DX2                !
 ! A14   A(4,5,40)             119.8967         estimate D2E/DX2                !
 ! A15   A(6,5,40)             120.8389         estimate D2E/DX2                !
 ! A16   A(5,6,7)              121.1865         estimate D2E/DX2                !
 ! A17   A(5,6,41)             117.5656         estimate D2E/DX2                !
 ! A18   A(7,6,41)             121.2445         estimate D2E/DX2                !
 ! A19   A(6,7,8)              117.7102         estimate D2E/DX2                !
 ! A20   A(6,7,22)             120.1636         estimate D2E/DX2                !
 ! A21   A(8,7,22)             122.086          estimate D2E/DX2                !
 ! A22   A(7,8,9)              120.1611         estimate D2E/DX2                !
 ! A23   A(7,8,14)             119.3714         estimate D2E/DX2                !
 ! A24   A(9,8,14)             120.0794         estimate D2E/DX2                !
 ! A25   A(8,9,10)             116.6294         estimate D2E/DX2                !
 ! A26   A(8,9,42)             106.4977         estimate D2E/DX2                !
 ! A27   A(8,9,43)             107.303          estimate D2E/DX2                !
 ! A28   A(10,9,42)            109.7006         estimate D2E/DX2                !
 ! A29   A(10,9,43)            108.9433         estimate D2E/DX2                !
 ! A30   A(42,9,43)            107.3798         estimate D2E/DX2                !
 ! A31   A(9,10,11)            111.5794         estimate D2E/DX2                !
 ! A32   A(9,10,12)            107.3367         estimate D2E/DX2                !
 ! A33   A(9,10,13)            111.395          estimate D2E/DX2                !
 ! A34   A(11,10,12)           109.8923         estimate D2E/DX2                !
 ! A35   A(11,10,13)           108.7965         estimate D2E/DX2                !
 ! A36   A(12,10,13)           107.7584         estimate D2E/DX2                !
 ! A37   A(10,11,44)           110.6999         estimate D2E/DX2                !
 ! A38   A(10,11,45)           110.695          estimate D2E/DX2                !
 ! A39   A(10,11,46)           113.3006         estimate D2E/DX2                !
 ! A40   A(44,11,45)           106.5315         estimate D2E/DX2                !
 ! A41   A(44,11,46)           107.7349         estimate D2E/DX2                !
 ! A42   A(45,11,46)           107.5833         estimate D2E/DX2                !
 ! A43   A(10,12,47)           110.0844         estimate D2E/DX2                !
 ! A44   A(10,12,48)           110.6816         estimate D2E/DX2                !
 ! A45   A(10,12,49)           111.8863         estimate D2E/DX2                !
 ! A46   A(47,12,48)           105.5801         estimate D2E/DX2                !
 ! A47   A(47,12,49)           108.6076         estimate D2E/DX2                !
 ! A48   A(48,12,49)           109.7884         estimate D2E/DX2                !
 ! A49   A(10,13,50)           112.2725         estimate D2E/DX2                !
 ! A50   A(10,13,51)           111.8967         estimate D2E/DX2                !
 ! A51   A(10,13,52)           112.1067         estimate D2E/DX2                !
 ! A52   A(50,13,51)           107.3023         estimate D2E/DX2                !
 ! A53   A(50,13,52)           105.4264         estimate D2E/DX2                !
 ! A54   A(51,13,52)           107.451          estimate D2E/DX2                !
 ! A55   A(8,14,15)            119.5745         estimate D2E/DX2                !
 ! A56   A(8,14,21)            119.8671         estimate D2E/DX2                !
 ! A57   A(15,14,21)           120.5417         estimate D2E/DX2                !
 ! A58   A(14,15,16)           118.4545         estimate D2E/DX2                !
 ! A59   A(14,15,53)           121.851          estimate D2E/DX2                !
 ! A60   A(16,15,53)           119.6914         estimate D2E/DX2                !
 ! A61   A(15,16,17)           118.4511         estimate D2E/DX2                !
 ! A62   A(15,16,18)           120.9567         estimate D2E/DX2                !
 ! A63   A(17,16,18)           120.5916         estimate D2E/DX2                !
 ! A64   A(16,18,19)           119.941          estimate D2E/DX2                !
 ! A65   A(16,18,54)           119.9973         estimate D2E/DX2                !
 ! A66   A(19,18,54)           120.0549         estimate D2E/DX2                !
 ! A67   A(18,19,20)           119.9693         estimate D2E/DX2                !
 ! A68   A(18,19,21)           120.3334         estimate D2E/DX2                !
 ! A69   A(20,19,21)           119.6661         estimate D2E/DX2                !
 ! A70   A(14,21,19)           119.7323         estimate D2E/DX2                !
 ! A71   A(14,21,55)           121.2358         estimate D2E/DX2                !
 ! A72   A(19,21,55)           118.9917         estimate D2E/DX2                !
 ! A73   A(3,22,7)             117.4807         estimate D2E/DX2                !
 ! A74   A(3,22,23)            120.5093         estimate D2E/DX2                !
 ! A75   A(7,22,23)            121.6203         estimate D2E/DX2                !
 ! A76   A(22,23,24)           119.1714         estimate D2E/DX2                !
 ! A77   A(22,23,31)           120.552          estimate D2E/DX2                !
 ! A78   A(24,23,31)           120.1607         estimate D2E/DX2                !
 ! A79   A(23,24,25)           122.5979         estimate D2E/DX2                !
 ! A80   A(23,24,27)           118.3894         estimate D2E/DX2                !
 ! A81   A(25,24,27)           118.9568         estimate D2E/DX2                !
 ! A82   A(24,25,26)           124.2087         estimate D2E/DX2                !
 ! A83   A(24,25,56)           119.7262         estimate D2E/DX2                !
 ! A84   A(26,25,56)           115.4434         estimate D2E/DX2                !
 ! A85   A(1,26,25)            123.0186         estimate D2E/DX2                !
 ! A86   A(1,26,57)            116.4146         estimate D2E/DX2                !
 ! A87   A(25,26,57)           119.9072         estimate D2E/DX2                !
 ! A88   A(24,27,28)           122.6981         estimate D2E/DX2                !
 ! A89   A(24,27,58)           120.0142         estimate D2E/DX2                !
 ! A90   A(28,27,58)           117.2877         estimate D2E/DX2                !
 ! A91   A(27,28,29)           118.4928         estimate D2E/DX2                !
 ! A92   A(27,28,59)           119.7809         estimate D2E/DX2                !
 ! A93   A(29,28,59)           121.689          estimate D2E/DX2                !
 ! A94   A(28,29,30)           118.1842         estimate D2E/DX2                !
 ! A95   A(28,29,31)           121.169          estimate D2E/DX2                !
 ! A96   A(30,29,31)           120.5573         estimate D2E/DX2                !
 ! A97   A(29,30,60)           108.7898         estimate D2E/DX2                !
 ! A98   A(29,30,61)           110.8107         estimate D2E/DX2                !
 ! A99   A(29,30,62)           110.9714         estimate D2E/DX2                !
 ! A100  A(60,30,61)           110.0895         estimate D2E/DX2                !
 ! A101  A(60,30,62)           108.5162         estimate D2E/DX2                !
 ! A102  A(61,30,62)           107.6329         estimate D2E/DX2                !
 ! A103  A(23,31,29)           118.7903         estimate D2E/DX2                !
 ! A104  A(23,31,32)           120.3095         estimate D2E/DX2                !
 ! A105  A(29,31,32)           120.9002         estimate D2E/DX2                !
 ! A106  A(31,32,33)           126.3359         estimate D2E/DX2                !
 ! A107  A(31,32,36)           122.367          estimate D2E/DX2                !
 ! A108  A(33,32,36)           111.2865         estimate D2E/DX2                !
 ! A109  A(32,33,34)           108.7457         estimate D2E/DX2                !
 ! A110  A(32,33,63)           125.9745         estimate D2E/DX2                !
 ! A111  A(34,33,63)           125.27           estimate D2E/DX2                !
 ! A112  A(33,34,35)           103.8255         estimate D2E/DX2                !
 ! A113  A(33,34,64)           127.4928         estimate D2E/DX2                !
 ! A114  A(35,34,64)           128.6773         estimate D2E/DX2                !
 ! A115  A(34,35,36)           110.5394         estimate D2E/DX2                !
 ! A116  A(34,35,65)           125.8497         estimate D2E/DX2                !
 ! A117  A(36,35,65)           123.6095         estimate D2E/DX2                !
 ! A118  A(32,36,35)           105.6028         estimate D2E/DX2                !
 ! A119  A(32,36,66)           126.8213         estimate D2E/DX2                !
 ! A120  A(35,36,66)           127.5759         estimate D2E/DX2                !
 ! D1    D(26,1,2,3)             2.1357         estimate D2E/DX2                !
 ! D2    D(26,1,2,38)          171.7516         estimate D2E/DX2                !
 ! D3    D(37,1,2,3)          -171.4014         estimate D2E/DX2                !
 ! D4    D(37,1,2,38)           -1.7855         estimate D2E/DX2                !
 ! D5    D(2,1,26,25)           64.982          estimate D2E/DX2                !
 ! D6    D(2,1,26,57)         -124.3531         estimate D2E/DX2                !
 ! D7    D(37,1,26,25)        -121.5636         estimate D2E/DX2                !
 ! D8    D(37,1,26,57)          49.1013         estimate D2E/DX2                !
 ! D9    D(1,2,3,4)            118.9878         estimate D2E/DX2                !
 ! D10   D(1,2,3,22)           -63.242          estimate D2E/DX2                !
 ! D11   D(38,2,3,4)           -50.3233         estimate D2E/DX2                !
 ! D12   D(38,2,3,22)          127.4469         estimate D2E/DX2                !
 ! D13   D(2,3,4,5)            178.6577         estimate D2E/DX2                !
 ! D14   D(2,3,4,39)            -1.5124         estimate D2E/DX2                !
 ! D15   D(22,3,4,5)             0.8793         estimate D2E/DX2                !
 ! D16   D(22,3,4,39)         -179.2908         estimate D2E/DX2                !
 ! D17   D(2,3,22,7)           179.5356         estimate D2E/DX2                !
 ! D18   D(2,3,22,23)           -7.5148         estimate D2E/DX2                !
 ! D19   D(4,3,22,7)            -2.7991         estimate D2E/DX2                !
 ! D20   D(4,3,22,23)          170.1505         estimate D2E/DX2                !
 ! D21   D(3,4,5,6)              1.4422         estimate D2E/DX2                !
 ! D22   D(3,4,5,40)           177.775          estimate D2E/DX2                !
 ! D23   D(39,4,5,6)          -178.3898         estimate D2E/DX2                !
 ! D24   D(39,4,5,40)           -2.057          estimate D2E/DX2                !
 ! D25   D(4,5,6,7)             -1.7292         estimate D2E/DX2                !
 ! D26   D(4,5,6,41)           177.6001         estimate D2E/DX2                !
 ! D27   D(40,5,6,7)          -178.0265         estimate D2E/DX2                !
 ! D28   D(40,5,6,41)            1.3028         estimate D2E/DX2                !
 ! D29   D(5,6,7,8)           -178.0048         estimate D2E/DX2                !
 ! D30   D(5,6,7,22)            -0.2606         estimate D2E/DX2                !
 ! D31   D(41,6,7,8)             2.6907         estimate D2E/DX2                !
 ! D32   D(41,6,7,22)         -179.5651         estimate D2E/DX2                !
 ! D33   D(6,7,8,9)             42.5143         estimate D2E/DX2                !
 ! D34   D(6,7,8,14)          -144.6297         estimate D2E/DX2                !
 ! D35   D(22,7,8,9)          -135.1837         estimate D2E/DX2                !
 ! D36   D(22,7,8,14)           37.6723         estimate D2E/DX2                !
 ! D37   D(6,7,22,3)             2.4904         estimate D2E/DX2                !
 ! D38   D(6,7,22,23)         -170.3759         estimate D2E/DX2                !
 ! D39   D(8,7,22,3)          -179.8668         estimate D2E/DX2                !
 ! D40   D(8,7,22,23)            7.2669         estimate D2E/DX2                !
 ! D41   D(7,8,9,10)          -118.3675         estimate D2E/DX2                !
 ! D42   D(7,8,9,42)           118.8264         estimate D2E/DX2                !
 ! D43   D(7,8,9,43)             4.0827         estimate D2E/DX2                !
 ! D44   D(14,8,9,10)           68.8274         estimate D2E/DX2                !
 ! D45   D(14,8,9,42)          -53.9788         estimate D2E/DX2                !
 ! D46   D(14,8,9,43)         -168.7224         estimate D2E/DX2                !
 ! D47   D(7,8,14,15)         -129.729          estimate D2E/DX2                !
 ! D48   D(7,8,14,21)           48.7969         estimate D2E/DX2                !
 ! D49   D(9,8,14,15)           43.133          estimate D2E/DX2                !
 ! D50   D(9,8,14,21)         -138.3412         estimate D2E/DX2                !
 ! D51   D(8,9,10,11)           58.6227         estimate D2E/DX2                !
 ! D52   D(8,9,10,12)          179.0722         estimate D2E/DX2                !
 ! D53   D(8,9,10,13)          -63.1869         estimate D2E/DX2                !
 ! D54   D(42,9,10,11)         179.7512         estimate D2E/DX2                !
 ! D55   D(42,9,10,12)         -59.7993         estimate D2E/DX2                !
 ! D56   D(42,9,10,13)          57.9416         estimate D2E/DX2                !
 ! D57   D(43,9,10,11)         -62.9689         estimate D2E/DX2                !
 ! D58   D(43,9,10,12)          57.4806         estimate D2E/DX2                !
 ! D59   D(43,9,10,13)         175.2214         estimate D2E/DX2                !
 ! D60   D(9,10,11,44)          61.4068         estimate D2E/DX2                !
 ! D61   D(9,10,11,45)         179.3053         estimate D2E/DX2                !
 ! D62   D(9,10,11,46)         -59.7438         estimate D2E/DX2                !
 ! D63   D(12,10,11,44)        -57.5331         estimate D2E/DX2                !
 ! D64   D(12,10,11,45)         60.3655         estimate D2E/DX2                !
 ! D65   D(12,10,11,46)       -178.6837         estimate D2E/DX2                !
 ! D66   D(13,10,11,44)       -175.2942         estimate D2E/DX2                !
 ! D67   D(13,10,11,45)        -57.3957         estimate D2E/DX2                !
 ! D68   D(13,10,11,46)         63.5552         estimate D2E/DX2                !
 ! D69   D(9,10,12,47)        -178.3303         estimate D2E/DX2                !
 ! D70   D(9,10,12,48)         -61.9898         estimate D2E/DX2                !
 ! D71   D(9,10,12,49)          60.8045         estimate D2E/DX2                !
 ! D72   D(11,10,12,47)        -56.817          estimate D2E/DX2                !
 ! D73   D(11,10,12,48)         59.5235         estimate D2E/DX2                !
 ! D74   D(11,10,12,49)       -177.6822         estimate D2E/DX2                !
 ! D75   D(13,10,12,47)         61.5868         estimate D2E/DX2                !
 ! D76   D(13,10,12,48)        177.9273         estimate D2E/DX2                !
 ! D77   D(13,10,12,49)        -59.2784         estimate D2E/DX2                !
 ! D78   D(9,10,13,50)        -171.1078         estimate D2E/DX2                !
 ! D79   D(9,10,13,51)         -50.3775         estimate D2E/DX2                !
 ! D80   D(9,10,13,52)          70.4273         estimate D2E/DX2                !
 ! D81   D(11,10,13,50)         65.4829         estimate D2E/DX2                !
 ! D82   D(11,10,13,51)       -173.7868         estimate D2E/DX2                !
 ! D83   D(11,10,13,52)        -52.9819         estimate D2E/DX2                !
 ! D84   D(12,10,13,50)        -53.6219         estimate D2E/DX2                !
 ! D85   D(12,10,13,51)         67.1084         estimate D2E/DX2                !
 ! D86   D(12,10,13,52)       -172.0868         estimate D2E/DX2                !
 ! D87   D(8,14,15,16)         178.1932         estimate D2E/DX2                !
 ! D88   D(8,14,15,53)          -1.1637         estimate D2E/DX2                !
 ! D89   D(21,14,15,16)         -0.3225         estimate D2E/DX2                !
 ! D90   D(21,14,15,53)       -179.6794         estimate D2E/DX2                !
 ! D91   D(8,14,21,19)        -179.8278         estimate D2E/DX2                !
 ! D92   D(8,14,21,55)           2.5013         estimate D2E/DX2                !
 ! D93   D(15,14,21,19)         -1.3164         estimate D2E/DX2                !
 ! D94   D(15,14,21,55)       -178.9873         estimate D2E/DX2                !
 ! D95   D(14,15,16,17)       -178.8145         estimate D2E/DX2                !
 ! D96   D(14,15,16,18)          0.9306         estimate D2E/DX2                !
 ! D97   D(53,15,16,17)          0.5567         estimate D2E/DX2                !
 ! D98   D(53,15,16,18)       -179.6982         estimate D2E/DX2                !
 ! D99   D(15,16,18,19)          0.1344         estimate D2E/DX2                !
 ! D100  D(15,16,18,54)        179.1908         estimate D2E/DX2                !
 ! D101  D(17,16,18,19)        179.874          estimate D2E/DX2                !
 ! D102  D(17,16,18,54)         -1.0696         estimate D2E/DX2                !
 ! D103  D(16,18,19,20)       -179.7686         estimate D2E/DX2                !
 ! D104  D(16,18,19,21)         -1.8079         estimate D2E/DX2                !
 ! D105  D(54,18,19,20)          1.1756         estimate D2E/DX2                !
 ! D106  D(54,18,19,21)        179.1363         estimate D2E/DX2                !
 ! D107  D(18,19,21,14)          2.4036         estimate D2E/DX2                !
 ! D108  D(18,19,21,55)       -179.8731         estimate D2E/DX2                !
 ! D109  D(20,19,21,14)       -179.6295         estimate D2E/DX2                !
 ! D110  D(20,19,21,55)         -1.9062         estimate D2E/DX2                !
 ! D111  D(3,22,23,24)          74.5105         estimate D2E/DX2                !
 ! D112  D(3,22,23,31)        -109.3977         estimate D2E/DX2                !
 ! D113  D(7,22,23,24)        -112.8364         estimate D2E/DX2                !
 ! D114  D(7,22,23,31)          63.2554         estimate D2E/DX2                !
 ! D115  D(22,23,24,25)         -6.7628         estimate D2E/DX2                !
 ! D116  D(22,23,24,27)        170.4859         estimate D2E/DX2                !
 ! D117  D(31,23,24,25)        177.1297         estimate D2E/DX2                !
 ! D118  D(31,23,24,27)         -5.6216         estimate D2E/DX2                !
 ! D119  D(22,23,31,29)       -172.6837         estimate D2E/DX2                !
 ! D120  D(22,23,31,32)          7.2584         estimate D2E/DX2                !
 ! D121  D(24,23,31,29)          3.3694         estimate D2E/DX2                !
 ! D122  D(24,23,31,32)       -176.6884         estimate D2E/DX2                !
 ! D123  D(23,24,25,26)        -62.7255         estimate D2E/DX2                !
 ! D124  D(23,24,25,56)        126.7365         estimate D2E/DX2                !
 ! D125  D(27,24,25,26)        120.0407         estimate D2E/DX2                !
 ! D126  D(27,24,25,56)        -50.4973         estimate D2E/DX2                !
 ! D127  D(23,24,27,28)          2.8737         estimate D2E/DX2                !
 ! D128  D(23,24,27,58)       -177.1922         estimate D2E/DX2                !
 ! D129  D(25,24,27,28)       -179.7753         estimate D2E/DX2                !
 ! D130  D(25,24,27,58)          0.1588         estimate D2E/DX2                !
 ! D131  D(24,25,26,1)           0.7819         estimate D2E/DX2                !
 ! D132  D(24,25,26,57)       -169.5703         estimate D2E/DX2                !
 ! D133  D(56,25,26,1)         171.6856         estimate D2E/DX2                !
 ! D134  D(56,25,26,57)          1.3334         estimate D2E/DX2                !
 ! D135  D(24,27,28,29)          2.1486         estimate D2E/DX2                !
 ! D136  D(24,27,28,59)        179.9634         estimate D2E/DX2                !
 ! D137  D(58,27,28,29)       -177.7872         estimate D2E/DX2                !
 ! D138  D(58,27,28,59)          0.0275         estimate D2E/DX2                !
 ! D139  D(27,28,29,30)        178.9203         estimate D2E/DX2                !
 ! D140  D(27,28,29,31)         -4.5024         estimate D2E/DX2                !
 ! D141  D(59,28,29,30)          1.1493         estimate D2E/DX2                !
 ! D142  D(59,28,29,31)        177.7266         estimate D2E/DX2                !
 ! D143  D(28,29,30,60)         99.815          estimate D2E/DX2                !
 ! D144  D(28,29,30,61)       -139.023          estimate D2E/DX2                !
 ! D145  D(28,29,30,62)        -19.5029         estimate D2E/DX2                !
 ! D146  D(31,29,30,60)        -76.7841         estimate D2E/DX2                !
 ! D147  D(31,29,30,61)         44.378          estimate D2E/DX2                !
 ! D148  D(31,29,30,62)        163.898          estimate D2E/DX2                !
 ! D149  D(28,29,31,23)          1.7713         estimate D2E/DX2                !
 ! D150  D(28,29,31,32)       -178.1705         estimate D2E/DX2                !
 ! D151  D(30,29,31,23)        178.2677         estimate D2E/DX2                !
 ! D152  D(30,29,31,32)         -1.6741         estimate D2E/DX2                !
 ! D153  D(23,31,32,33)         52.8778         estimate D2E/DX2                !
 ! D154  D(23,31,32,36)       -125.8274         estimate D2E/DX2                !
 ! D155  D(29,31,32,33)       -127.1813         estimate D2E/DX2                !
 ! D156  D(29,31,32,36)         54.1135         estimate D2E/DX2                !
 ! D157  D(31,32,33,34)       -178.9166         estimate D2E/DX2                !
 ! D158  D(31,32,33,63)          2.1787         estimate D2E/DX2                !
 ! D159  D(36,32,33,34)         -0.0903         estimate D2E/DX2                !
 ! D160  D(36,32,33,63)       -178.995          estimate D2E/DX2                !
 ! D161  D(31,32,36,35)        178.9415         estimate D2E/DX2                !
 ! D162  D(31,32,36,66)         -1.0771         estimate D2E/DX2                !
 ! D163  D(33,32,36,35)          0.0609         estimate D2E/DX2                !
 ! D164  D(33,32,36,66)       -179.9577         estimate D2E/DX2                !
 ! D165  D(32,33,34,35)          0.0784         estimate D2E/DX2                !
 ! D166  D(32,33,34,64)       -179.204          estimate D2E/DX2                !
 ! D167  D(63,33,34,35)        178.9928         estimate D2E/DX2                !
 ! D168  D(63,33,34,64)         -0.2897         estimate D2E/DX2                !
 ! D169  D(33,34,35,36)         -0.0426         estimate D2E/DX2                !
 ! D170  D(33,34,35,65)        179.5473         estimate D2E/DX2                !
 ! D171  D(64,34,35,36)        179.2281         estimate D2E/DX2                !
 ! D172  D(64,34,35,65)         -1.182          estimate D2E/DX2                !
 ! D173  D(34,35,36,32)         -0.009          estimate D2E/DX2                !
 ! D174  D(34,35,36,66)       -179.9902         estimate D2E/DX2                !
 ! D175  D(65,35,36,32)       -179.6098         estimate D2E/DX2                !
 ! D176  D(65,35,36,66)          0.409          estimate D2E/DX2                !
 --------------------------------------------------------------------------------
 Trust Radius=3.00D-01 FncErr=1.00D-07 GrdErr=1.00D-06 EigMax=2.50D+02 EigMin=1.00D-04
 Number of steps in this run=    376 maximum allowed number of steps=    396.
 GradGradGradGradGradGradGradGradGradGradGradGradGradGradGradGradGradGrad

 Leave Link  103 at Fri Jan 24 16:52:25 2025, MaxMem=  3221225472 cpu:               1.1 elap:               0.1
 (Enter /software/gaussian/G16-C.01/avx2/g16/l202.exe)
 Stoichiometry    C31H30BBr2N2(1+)
 Framework group  C1[X(C31H30BBr2N2)]
 Deg. of freedom   192
 Full point group                 C1      NOp   1
 Largest Abelian subgroup         C1      NOp   1
 Largest concise Abelian subgroup C1      NOp   1
                         Standard orientation:                         
 ---------------------------------------------------------------------
 Center     Atomic      Atomic             Coordinates (Angstroms)
 Number     Number       Type             X           Y           Z
 ---------------------------------------------------------------------
      1          6           0       -2.340513    4.236970   -0.729311
      2          6           0       -3.254150    3.250411   -0.629323
      3          6           0       -3.127018    2.118655    0.310480
      4          6           0       -4.139212    1.983420    1.278566
      5          6           0       -4.111998    0.928220    2.186012
      6          6           0       -3.056229    0.026235    2.143888
      7          6           0       -2.042083    0.140619    1.183855
      8          5           0       -0.878711   -0.984600    1.180318
      9          6           0       -1.256400   -2.543279    1.375135
     10          6           0       -0.652650   -3.262133    2.635398
     11          6           0       -1.075373   -2.573941    3.930393
     12          6           0       -1.163051   -4.715142    2.623372
     13          6           0        0.873414   -3.303786    2.575519
     14          6           0        0.610844   -0.565200    0.814485
     15          6           0        1.320003   -1.297687   -0.152964
     16          6           0        2.622999   -0.882535   -0.486516
     17         35           0        3.570076   -1.853583   -1.820856
     18          6           0        3.207127    0.216161    0.139291
     19          6           0        2.508888    0.910510    1.100920
     20         35           0        3.314313    2.435874    1.963136
     21          6           0        1.190381    0.539335    1.429825
     22          6           0       -2.081707    1.198465    0.216310
     23          6           0       -1.145507    1.232135   -0.944316
     24          6           0       -0.162431    2.255445   -1.011500
     25          6           0       -0.117952    3.345751   -0.082099
     26          6           0       -1.096860    4.264604    0.057179
     27          6           0        0.816210    2.160855   -1.975507
     28          6           0        0.846219    1.126540   -2.929587
     29          6           0       -0.185288    0.183060   -2.922996
     30          6           0       -0.159446   -0.908336   -3.964473
     31          6           0       -1.178693    0.201586   -1.935097
     32          7           0       -2.225003   -0.804709   -1.910882
     33          6           0       -3.540318   -0.577711   -1.870332
     34          6           0       -4.200462   -1.793294   -1.834201
     35          6           0       -3.177617   -2.725969   -1.854919
     36          7           0       -1.960508   -2.102684   -1.902226
     37          1           0       -2.591117    5.091293   -1.341901
     38          1           0       -4.185006    3.405387   -1.149697
     39          1           0       -4.948630    2.701608    1.328584
     40          1           0       -4.853491    0.855635    2.927567
     41          1           0       -3.039971   -0.767488    2.892592
     42          1           0       -0.932378   -3.055854    0.469335
     43          1           0       -2.366520   -2.612168    1.417104
     44          1           0       -2.210248   -2.602108    4.050459
     45          1           0       -0.653697   -3.097628    4.806197
     46          1           0       -0.760542   -1.529401    3.987340
     47          1           0       -0.778439   -5.270297    3.533495
     48          1           0       -2.283686   -4.742881    2.704134
     49          1           0       -0.838438   -5.260046    1.712922
     50          1           0        1.304797   -3.936813    3.365893
     51          1           0        1.243363   -3.699390    1.591549
     52          1           0        1.328407   -2.292144    2.722914
     53          1           0        0.888267   -2.156440   -0.648181
     54          1           0        4.211980    0.513053   -0.119044
     55          1           0        0.651676    1.111280    2.200735
     56          1           0        0.825687    3.564896    0.467357
     57          1           0       -0.924559    5.148825    0.652568
     58          1           0        1.618428    2.914673   -2.022306
     59          1           0        1.633447    1.098450   -3.662985
     60          1           0        0.248660   -1.838172   -3.500835
     61          1           0       -1.188946   -1.098717   -4.368028
     62          1           0        0.491459   -0.625736   -4.821306
     63          1           0       -4.016861    0.389483   -1.882834
     64          1           0       -5.255773   -1.959888   -1.809316
     65          1           0       -3.299614   -3.801495   -1.830650
     66          1           0       -0.966520   -2.573124   -1.928207
 ---------------------------------------------------------------------
 Rotational constants (GHZ):           0.0982291           0.0812973           0.0719354
 Leave Link  202 at Fri Jan 24 16:52:25 2025, MaxMem=  3221225472 cpu:               1.0 elap:               0.0
 (Enter /software/gaussian/G16-C.01/avx2/g16/l301.exe)
 Standard basis: def2SVP (5D, 7F)
 Ernie: Thresh=  0.10000D-02 Tol=  0.10000D-05 Strict=F.
 There are   730 symmetry adapted cartesian basis functions of A   symmetry.
 There are   690 symmetry adapted basis functions of A   symmetry.
   690 basis functions,  1220 primitive gaussians,   730 cartesian basis functions
   152 alpha electrons      152 beta electrons
       nuclear repulsion energy      5298.6487523109 Hartrees.
 IExCor= 1009 DFT=T Ex+Corr=PBE1PBE ExCW=0 ScaHFX=  0.250000
 ScaDFX=  0.750000  0.750000  1.000000  1.000000 ScalE2=  1.000000  1.000000
 IRadAn=      5 IRanWt=     -1 IRanGd=            0 ICorTp=0 IEmpDi=141
 NAtoms=   66 NActive=   66 NUniq=   66 SFac= 1.00D+00 NAtFMM=   60 NAOKFM=T Big=T
 Integral buffers will be    131072 words long.
 Raffenetti 2 integral format.
 Two-electron integral symmetry is turned on.
 R6Disp:  Grimme-D3(BJ) Dispersion energy=       -0.1095023255 Hartrees.
 Nuclear repulsion after empirical dispersion term =     5298.5392499854 Hartrees.
 Leave Link  301 at Fri Jan 24 16:52:25 2025, MaxMem=  3221225472 cpu:               1.8 elap:               0.1
 (Enter /software/gaussian/G16-C.01/avx2/g16/l302.exe)
 NPDir=0 NMtPBC=     1 NCelOv=     1 NCel=       1 NClECP=     1 NCelD=      1
         NCelK=      1 NCelE2=     1 NClLst=     1 CellRange=     0.0.
 One-electron integrals computed using PRISM.
 One-electron integral symmetry used in STVInt
   1 Symmetry operations used in ECPInt.
 ECPInt:  NShTT=   50721 NPrTT=  191883 LenC2=   44938 LenP2D=  110756.
 LDataN:  DoStor=T MaxTD1= 4 Len=   56
 NBasis=   690 RedAO= T EigKep=  1.47D-04  NBF=   690
 NBsUse=   690 1.00D-06 EigRej= -1.00D+00 NBFU=   690
 Precomputing XC quadrature grid using
 IXCGrd= 4 IRadAn=           5 IRanWt=          -1 IRanGd=           0 AccXCQ= 0.00D+00.
 Generated NRdTot=       0 NPtTot=           0 NUsed=           0 NTot=          32
 NSgBfM=   706   705   705   705   706 MxSgAt=    66 MxSgA2=    66.
 Leave Link  302 at Fri Jan 24 16:52:26 2025, MaxMem=  3221225472 cpu:              26.3 elap:               1.1
 (Enter /software/gaussian/G16-C.01/avx2/g16/l303.exe)
 DipDrv:  MaxL=1.
 Leave Link  303 at Fri Jan 24 16:52:26 2025, MaxMem=  3221225472 cpu:               3.5 elap:               0.2
 (Enter /software/gaussian/G16-C.01/avx2/g16/l401.exe)
 ExpMin= 8.36D-02 ExpMax= 1.13D+05 ExpMxC= 1.70D+04 IAcc=3 IRadAn=         5 AccDes= 0.00D+00
 Harris functional with IExCor= 1009 and IRadAn=       5 diagonalized for initial guess.
 HarFok:  IExCor= 1009 AccDes= 0.00D+00 IRadAn=         5 IDoV= 1 UseB2=F ITyADJ=14
 ICtDFT=  3500011 ScaDFX=  1.000000  1.000000  1.000000  1.000000
 FoFCou: FMM=F IPFlag=           0 FMFlag=      100000 FMFlg1=        2001
         NFxFlg=           0 DoJE=T BraDBF=F KetDBF=T FulRan=T
         wScrn=  0.000000 ICntrl=       500 IOpCl=  0 I1Cent=   200000004 NGrid=           0
         NMat0=    1 NMatS0=      1 NMatT0=    0 NMatD0=    1 NMtDS0=    0 NMtDT0=    0
 Petite list used in FoFCou.
 Harris En= -6478.28310262494    
 JPrj=0 DoOrth=F DoCkMO=F.
 Leave Link  401 at Fri Jan 24 16:52:29 2025, MaxMem=  3221225472 cpu:              69.1 elap:               2.9
 (Enter /software/gaussian/G16-C.01/avx2/g16/l502.exe)
 Integral symmetry usage will be decided dynamically.
 Closed shell SCF:
 Using DIIS extrapolation, IDIIS=  1040.
 NGot=  3221225472 LenX=  3220133034 LenY=  3219599404
 Requested convergence on RMS density matrix=1.00D-08 within 128 cycles.
 Requested convergence on MAX density matrix=1.00D-06.
 Requested convergence on             energy=1.00D-06.
 No special actions if energy rises.
 Fock matrices will be formed incrementally for  20 cycles.
 Integral accuracy reduced to 1.0D-05 until final iterations.

 Cycle   1  Pass 0  IDiag  1:
 FoFJK:  IHMeth= 1 ICntrl=       0 DoSepK=F KAlg= 0 I1Cent=           0 FoldK=F
 IRaf= 990000000 NMat=       1 IRICut=       1 DoRegI=T DoRafI=F ISym2E= 0 IDoP0=0 IntGTp=1.
 FoFCou: FMM=T IPFlag=           0 FMFlag=      100000 FMFlg1=        2001
         NFxFlg=           0 DoJE=F BraDBF=F KetDBF=F FulRan=T
         wScrn=  0.000000 ICntrl=         0 IOpCl=  0 I1Cent=           0 NGrid=           0
         NMat0=    1 NMatS0=      1 NMatT0=    0 NMatD0=    1 NMtDS0=    0 NMtDT0=    0
 Symmetry not used in FoFCou.
 FMM levels:  10  Number of levels for PrismC:   9
 E= -6477.34459932446    
 DIIS: error= 3.80D-02 at cycle   1 NSaved=   1.
 NSaved= 1 IEnMin= 1 EnMin= -6477.34459932446     IErMin= 1 ErrMin= 3.80D-02
 ErrMax= 3.80D-02  0.00D+00 EMaxC= 1.00D-01 BMatC= 8.76D-01 BMatP= 8.76D-01
 IDIUse=3 WtCom= 6.20D-01 WtEn= 3.80D-01
 Coeff-Com:  0.100D+01
 Coeff-En:   0.100D+01
 Coeff:      0.100D+01
 Gap=     0.285 Goal=   None    Shift=    0.000
 GapD=    0.285 DampG=1.000 DampE=0.500 DampFc=0.5000 IDamp=-1.
 Damping current iteration by 5.00D-01
 RMSDP=3.99D-03 MaxDP=1.69D-01              OVMax= 2.86D-01

 Cycle   2  Pass 0  IDiag  1:
 RMSU=  1.96D-03    CP:  9.77D-01
 E= -6477.61623754185     Delta-E=       -0.271638217389 Rises=F Damp=T
 DIIS: error= 8.81D-03 at cycle   2 NSaved=   2.
 NSaved= 2 IEnMin= 2 EnMin= -6477.61623754185     IErMin= 2 ErrMin= 8.81D-03
 ErrMax= 8.81D-03  0.00D+00 EMaxC= 1.00D-01 BMatC= 9.42D-02 BMatP= 8.76D-01
 IDIUse=3 WtCom= 9.12D-01 WtEn= 8.81D-02
 Coeff-Com:  0.114D+00 0.886D+00
 Coeff-En:   0.255D+00 0.745D+00
 Coeff:      0.127D+00 0.873D+00
 Gap=     0.254 Goal=   None    Shift=    0.000
 RMSDP=1.64D-03 MaxDP=1.26D-01 DE=-2.72D-01 OVMax= 2.87D-01

 Cycle   3  Pass 0  IDiag  1:
 RMSU=  1.56D-03    CP:  9.60D-01  7.94D-01
 E= -6477.98385467901     Delta-E=       -0.367617137157 Rises=F Damp=F
 DIIS: error= 1.28D-02 at cycle   3 NSaved=   3.
 NSaved= 3 IEnMin= 3 EnMin= -6477.98385467901     IErMin= 2 ErrMin= 8.81D-03
 ErrMax= 1.28D-02  0.00D+00 EMaxC= 1.00D-01 BMatC= 1.32D-01 BMatP= 9.42D-02
 IDIUse=2 WtCom= 0.00D+00 WtEn= 1.00D+00
 Coeff-En:   0.000D+00 0.000D+00 0.100D+01
 Coeff:      0.000D+00 0.000D+00 0.100D+01
 Gap=     0.154 Goal=   None    Shift=    0.000
 RMSDP=2.30D-03 MaxDP=1.68D-01 DE=-3.68D-01 OVMax= 2.11D-01

 Cycle   4  Pass 0  IDiag  1:
 RMSU=  1.31D-03    CP:  9.63D-01  1.39D+00  5.69D-02
 E= -6477.41938857246     Delta-E=        0.564466106545 Rises=F Damp=F
 DIIS: error= 3.04D-02 at cycle   4 NSaved=   4.
 NSaved= 4 IEnMin= 3 EnMin= -6477.98385467901     IErMin= 2 ErrMin= 8.81D-03
 ErrMax= 3.04D-02  0.00D+00 EMaxC= 1.00D-01 BMatC= 6.80D-01 BMatP= 9.42D-02
 IDIUse=2 WtCom= 0.00D+00 WtEn= 1.00D+00
 Coeff-En:   0.000D+00 0.000D+00 0.783D+00 0.217D+00
 Coeff:      0.000D+00 0.000D+00 0.783D+00 0.217D+00
 Gap=     0.126 Goal=   None    Shift=    0.000
 RMSDP=1.27D-03 MaxDP=1.09D-01 DE= 5.64D-01 OVMax= 1.37D-01

 Cycle   5  Pass 0  IDiag  1:
 RMSU=  2.77D-04    CP:  9.61D-01  1.07D+00  5.61D-01  4.49D-01
 E= -6478.06494644139     Delta-E=       -0.645557868929 Rises=F Damp=F
 DIIS: error= 9.15D-03 at cycle   5 NSaved=   5.
 NSaved= 5 IEnMin= 5 EnMin= -6478.06494644139     IErMin= 2 ErrMin= 8.81D-03
 ErrMax= 9.15D-03  0.00D+00 EMaxC= 1.00D-01 BMatC= 5.27D-02 BMatP= 9.42D-02
 IDIUse=3 WtCom= 9.09D-01 WtEn= 9.15D-02
 Coeff-Com:  0.921D-02-0.524D-02 0.349D+00-0.320D-01 0.679D+00
 Coeff-En:   0.000D+00 0.000D+00 0.332D+00 0.000D+00 0.668D+00
 Coeff:      0.837D-02-0.476D-02 0.348D+00-0.291D-01 0.678D+00
 Gap=     0.154 Goal=   None    Shift=    0.000
 RMSDP=4.21D-04 MaxDP=3.84D-02 DE=-6.46D-01 OVMax= 5.38D-02

 Cycle   6  Pass 0  IDiag  1:
 RMSU=  1.04D-04    CP:  9.60D-01  9.57D-01  7.32D-01  2.92D-01  7.43D-01
 E= -6478.11644422190     Delta-E=       -0.051497780503 Rises=F Damp=F
 DIIS: error= 1.36D-03 at cycle   6 NSaved=   6.
 NSaved= 6 IEnMin= 6 EnMin= -6478.11644422190     IErMin= 6 ErrMin= 1.36D-03
 ErrMax= 1.36D-03  0.00D+00 EMaxC= 1.00D-01 BMatC= 1.10D-03 BMatP= 5.27D-02
 IDIUse=3 WtCom= 9.86D-01 WtEn= 1.36D-02
 Coeff-Com:  0.181D-02-0.487D-02 0.151D+00-0.575D-01 0.450D+00 0.460D+00
 Coeff-En:   0.000D+00 0.000D+00 0.000D+00 0.000D+00 0.000D+00 0.100D+01
 Coeff:      0.179D-02-0.480D-02 0.148D+00-0.567D-01 0.444D+00 0.467D+00
 Gap=     0.153 Goal=   None    Shift=    0.000
 RMSDP=6.67D-05 MaxDP=5.22D-03 DE=-5.15D-02 OVMax= 6.85D-03

 Cycle   7  Pass 0  IDiag  1:
 RMSU=  3.43D-05    CP:  9.60D-01  9.55D-01  7.38D-01  2.80D-01  8.09D-01
                    CP:  5.13D-01
 E= -6478.11758282137     Delta-E=       -0.001138599473 Rises=F Damp=F
 DIIS: error= 2.56D-04 at cycle   7 NSaved=   7.
 NSaved= 7 IEnMin= 7 EnMin= -6478.11758282137     IErMin= 7 ErrMin= 2.56D-04
 ErrMax= 2.56D-04  0.00D+00 EMaxC= 1.00D-01 BMatC= 5.98D-05 BMatP= 1.10D-03
 IDIUse=3 WtCom= 9.97D-01 WtEn= 2.56D-03
 Coeff-Com:  0.593D-03-0.142D-02 0.694D-01-0.323D-01 0.222D+00 0.278D+00
 Coeff-Com:  0.464D+00
 Coeff-En:   0.000D+00 0.000D+00 0.000D+00 0.000D+00 0.000D+00 0.000D+00
 Coeff-En:   0.100D+01
 Coeff:      0.591D-03-0.141D-02 0.692D-01-0.322D-01 0.221D+00 0.277D+00
 Coeff:      0.465D+00
 Gap=     0.153 Goal=   None    Shift=    0.000
 RMSDP=1.99D-05 MaxDP=1.04D-03 DE=-1.14D-03 OVMax= 1.93D-03

 Cycle   8  Pass 0  IDiag  1:
 RMSU=  1.45D-05    CP:  9.60D-01  9.54D-01  7.39D-01  2.79D-01  8.08D-01
                    CP:  5.67D-01  6.45D-01
 E= -6478.11765414206     Delta-E=       -0.000071320690 Rises=F Damp=F
 DIIS: error= 5.27D-05 at cycle   8 NSaved=   8.
 NSaved= 8 IEnMin= 8 EnMin= -6478.11765414206     IErMin= 8 ErrMin= 5.27D-05
 ErrMax= 5.27D-05  0.00D+00 EMaxC= 1.00D-01 BMatC= 6.31D-06 BMatP= 5.98D-05
 IDIUse=1 WtCom= 1.00D+00 WtEn= 0.00D+00
 Coeff-Com:  0.258D-03-0.660D-03 0.179D-01-0.936D-02 0.571D-01 0.907D-01
 Coeff-Com:  0.265D+00 0.579D+00
 Coeff:      0.258D-03-0.660D-03 0.179D-01-0.936D-02 0.571D-01 0.907D-01
 Coeff:      0.265D+00 0.579D+00
 Gap=     0.153 Goal=   None    Shift=    0.000
 RMSDP=7.32D-06 MaxDP=3.37D-04 DE=-7.13D-05 OVMax= 6.83D-04

 Initial convergence to 1.0D-05 achieved.  Increase integral accuracy.
 Cycle   9  Pass 1  IDiag  1:
 E= -6478.11742277191     Delta-E=        0.000231370152 Rises=F Damp=F
 DIIS: error= 4.64D-04 at cycle   1 NSaved=   1.
 NSaved= 1 IEnMin= 1 EnMin= -6478.11742277191     IErMin= 1 ErrMin= 4.64D-04
 ErrMax= 4.64D-04  0.00D+00 EMaxC= 1.00D-01 BMatC= 9.68D-05 BMatP= 9.68D-05
 IDIUse=3 WtCom= 9.95D-01 WtEn= 4.64D-03
 Coeff-Com:  0.100D+01
 Coeff-En:   0.100D+01
 Coeff:      0.100D+01
 Gap=     0.153 Goal=   None    Shift=    0.000
 RMSDP=7.32D-06 MaxDP=3.37D-04 DE= 2.31D-04 OVMax= 1.25D-03

 Cycle  10  Pass 1  IDiag  1:
 RMSU=  4.00D-04    CP:  9.99D-01
 E= -6478.11751132521     Delta-E=       -0.000088553303 Rises=F Damp=F
 DIIS: error= 4.63D-05 at cycle   2 NSaved=   2.
 NSaved= 2 IEnMin= 2 EnMin= -6478.11751132521     IErMin= 2 ErrMin= 4.63D-05
 ErrMax= 4.63D-05  0.00D+00 EMaxC= 1.00D-01 BMatC= 6.53D-06 BMatP= 9.68D-05
 IDIUse=1 WtCom= 1.00D+00 WtEn= 0.00D+00
 Coeff-Com:  0.788D-01 0.921D+00
 Coeff:      0.788D-01 0.921D+00
 Gap=     0.153 Goal=   None    Shift=    0.000
 RMSDP=1.70D-05 MaxDP=8.56D-04 DE=-8.86D-05 OVMax= 1.61D-03

 Cycle  11  Pass 1  IDiag  1:
 RMSU=  1.61D-05    CP:  9.99D-01  1.01D+00
 E= -6478.11748986316     Delta-E=        0.000021462049 Rises=F Damp=F
 DIIS: error= 9.83D-05 at cycle   3 NSaved=   3.
 NSaved= 3 IEnMin= 2 EnMin= -6478.11751132521     IErMin= 2 ErrMin= 4.63D-05
 ErrMax= 9.83D-05  0.00D+00 EMaxC= 1.00D-01 BMatC= 2.58D-05 BMatP= 6.53D-06
 IDIUse=1 WtCom= 1.00D+00 WtEn= 0.00D+00
 Coeff-Com: -0.623D-02 0.670D+00 0.336D+00
 Coeff:     -0.623D-02 0.670D+00 0.336D+00
 Gap=     0.153 Goal=   None    Shift=    0.000
 RMSDP=1.09D-05 MaxDP=5.41D-04 DE= 2.15D-05 OVMax= 1.08D-03

 Cycle  12  Pass 1  IDiag  1:
 RMSU=  2.07D-06    CP:  9.99D-01  1.02D+00  3.39D-01
 E= -6478.11751839868     Delta-E=       -0.000028535515 Rises=F Damp=F
 DIIS: error= 9.65D-06 at cycle   4 NSaved=   4.
 NSaved= 4 IEnMin= 4 EnMin= -6478.11751839868     IErMin= 4 ErrMin= 9.65D-06
 ErrMax= 9.65D-06  0.00D+00 EMaxC= 1.00D-01 BMatC= 2.03D-07 BMatP= 6.53D-06
 IDIUse=1 WtCom= 1.00D+00 WtEn= 0.00D+00
 Coeff-Com: -0.497D-02 0.404D+00 0.209D+00 0.393D+00
 Coeff:     -0.497D-02 0.404D+00 0.209D+00 0.393D+00
 Gap=     0.153 Goal=   None    Shift=    0.000
 RMSDP=9.81D-07 MaxDP=5.45D-05 DE=-2.85D-05 OVMax= 8.81D-05

 Cycle  13  Pass 1  IDiag  1:
 RMSU=  6.46D-07    CP:  9.99D-01  1.02D+00  3.46D-01  6.47D-01
 E= -6478.11751861140     Delta-E=       -0.000000212727 Rises=F Damp=F
 DIIS: error= 1.49D-06 at cycle   5 NSaved=   5.
 NSaved= 5 IEnMin= 5 EnMin= -6478.11751861140     IErMin= 5 ErrMin= 1.49D-06
 ErrMax= 1.49D-06  0.00D+00 EMaxC= 1.00D-01 BMatC= 3.87D-09 BMatP= 2.03D-07
 IDIUse=1 WtCom= 1.00D+00 WtEn= 0.00D+00
 Coeff-Com: -0.261D-02 0.208D+00 0.108D+00 0.221D+00 0.466D+00
 Coeff:     -0.261D-02 0.208D+00 0.108D+00 0.221D+00 0.466D+00
 Gap=     0.153 Goal=   None    Shift=    0.000
 RMSDP=1.71D-07 MaxDP=7.54D-06 DE=-2.13D-07 OVMax= 1.75D-05

 Cycle  14  Pass 1  IDiag  1:
 RMSU=  1.55D-07    CP:  9.99D-01  1.02D+00  3.45D-01  6.71D-01  9.22D-01
 E= -6478.11751861480     Delta-E=       -0.000000003398 Rises=F Damp=F
 DIIS: error= 5.60D-07 at cycle   6 NSaved=   6.
 NSaved= 6 IEnMin= 6 EnMin= -6478.11751861480     IErMin= 6 ErrMin= 5.60D-07
 ErrMax= 5.60D-07  0.00D+00 EMaxC= 1.00D-01 BMatC= 6.27D-10 BMatP= 3.87D-09
 IDIUse=1 WtCom= 1.00D+00 WtEn= 0.00D+00
 Coeff-Com: -0.483D-03 0.364D-01 0.188D-01 0.481D-01 0.291D+00 0.606D+00
 Coeff:     -0.483D-03 0.364D-01 0.188D-01 0.481D-01 0.291D+00 0.606D+00
 Gap=     0.153 Goal=   None    Shift=    0.000
 RMSDP=7.09D-08 MaxDP=3.33D-06 DE=-3.40D-09 OVMax= 7.42D-06

 Cycle  15  Pass 1  IDiag  1:
 RMSU=  4.46D-08    CP:  9.99D-01  1.02D+00  3.45D-01  6.73D-01  9.53D-01
                    CP:  6.81D-01
 E= -6478.11751861543     Delta-E=       -0.000000000629 Rises=F Damp=F
 DIIS: error= 3.40D-07 at cycle   7 NSaved=   7.
 NSaved= 7 IEnMin= 7 EnMin= -6478.11751861543     IErMin= 7 ErrMin= 3.40D-07
 ErrMax= 3.40D-07  0.00D+00 EMaxC= 1.00D-01 BMatC= 1.30D-10 BMatP= 6.27D-10
 IDIUse=1 WtCom= 1.00D+00 WtEn= 0.00D+00
 Coeff-Com:  0.200D-04-0.288D-02-0.153D-02 0.371D-02 0.130D+00 0.398D+00
 Coeff-Com:  0.473D+00
 Coeff:      0.200D-04-0.288D-02-0.153D-02 0.371D-02 0.130D+00 0.398D+00
 Coeff:      0.473D+00
 Gap=     0.153 Goal=   None    Shift=    0.000
 RMSDP=2.69D-08 MaxDP=1.77D-06 DE=-6.29D-10 OVMax= 2.40D-06

 Cycle  16  Pass 1  IDiag  1:
 RMSU=  1.34D-08    CP:  9.99D-01  1.02D+00  3.45D-01  6.76D-01  9.57D-01
                    CP:  7.42D-01  5.50D-01
 E= -6478.11751861556     Delta-E=       -0.000000000131 Rises=F Damp=F
 DIIS: error= 1.23D-07 at cycle   8 NSaved=   8.
 NSaved= 8 IEnMin= 8 EnMin= -6478.11751861556     IErMin= 8 ErrMin= 1.23D-07
 ErrMax= 1.23D-07  0.00D+00 EMaxC= 1.00D-01 BMatC= 8.90D-12 BMatP= 1.30D-10
 IDIUse=1 WtCom= 1.00D+00 WtEn= 0.00D+00
 Coeff-Com:  0.443D-04-0.419D-02-0.220D-02-0.717D-03 0.600D-01 0.207D+00
 Coeff-Com:  0.293D+00 0.447D+00
 Coeff:      0.443D-04-0.419D-02-0.220D-02-0.717D-03 0.600D-01 0.207D+00
 Coeff:      0.293D+00 0.447D+00
 Gap=     0.153 Goal=   None    Shift=    0.000
 RMSDP=5.62D-09 MaxDP=4.91D-07 DE=-1.31D-10 OVMax= 7.20D-07

 SCF Done:  E(RPBE1PBE) =  -6478.11751862     A.U. after   16 cycles
            NFock= 16  Conv=0.56D-08     -V/T= 2.0031
 KE= 6.458277205485D+03 PE=-2.594899048487D+04 EE= 7.714056510789D+03
 Leave Link  502 at Fri Jan 24 16:54:33 2025, MaxMem=  3221225472 cpu:            2961.4 elap:             124.2
 (Enter /software/gaussian/G16-C.01/avx2/g16/l601.exe)
 Copying SCF densities to generalized density rwf, IOpCl= 0 IROHF=0.

 **********************************************************************

            Population analysis using the SCF Density.

 **********************************************************************

 Orbital symmetries:
       Occupied  (A) (A) (A) (A) (A) (A) (A) (A) (A) (A) (A) (A)
                 (A) (A) (A) (A) (A) (A) (A) (A) (A) (A) (A) (A)
                 (A) (A) (A) (A) (A) (A) (A) (A) (A) (A) (A) (A)
                 (A) (A) (A) (A) (A) (A) (A) (A) (A) (A) (A) (A)
                 (A) (A) (A) (A) (A) (A) (A) (A) (A) (A) (A) (A)
                 (A) (A) (A) (A) (A) (A) (A) (A) (A) (A) (A) (A)
                 (A) (A) (A) (A) (A) (A) (A) (A) (A) (A) (A) (A)
                 (A) (A) (A) (A) (A) (A) (A) (A) (A) (A) (A) (A)
                 (A) (A) (A) (A) (A) (A) (A) (A) (A) (A) (A) (A)
                 (A) (A) (A) (A) (A) (A) (A) (A) (A) (A) (A) (A)
                 (A) (A) (A) (A) (A) (A) (A) (A) (A) (A) (A) (A)
                 (A) (A) (A) (A) (A) (A) (A) (A) (A) (A) (A) (A)
                 (A) (A) (A) (A) (A) (A) (A) (A)
       Virtual   (A) (A) (A) (A) (A) (A) (A) (A) (A) (A) (A) (A)
                 (A) (A) (A) (A) (A) (A) (A) (A) (A) (A) (A) (A)
                 (A) (A) (A) (A) (A) (A) (A) (A) (A) (A) (A) (A)
                 (A) (A) (A) (A) (A) (A) (A) (A) (A) (A) (A) (A)
                 (A) (A) (A) (A) (A) (A) (A) (A) (A) (A) (A) (A)
                 (A) (A) (A) (A) (A) (A) (A) (A) (A) (A) (A) (A)
                 (A) (A) (A) (A) (A) (A) (A) (A) (A) (A) (A) (A)
                 (A) (A) (A) (A) (A) (A) (A) (A) (A) (A) (A) (A)
                 (A) (A) (A) (A) (A) (A) (A) (A) (A) (A) (A) (A)
                 (A) (A) (A) (A) (A) (A) (A) (A) (A) (A) (A) (A)
                 (A) (A) (A) (A) (A) (A) (A) (A) (A) (A) (A) (A)
                 (A) (A) (A) (A) (A) (A) (A) (A) (A) (A) (A) (A)
                 (A) (A) (A) (A) (A) (A) (A) (A) (A) (A) (A) (A)
                 (A) (A) (A) (A) (A) (A) (A) (A) (A) (A) (A) (A)
                 (A) (A) (A) (A) (A) (A) (A) (A) (A) (A) (A) (A)
                 (A) (A) (A) (A) (A) (A) (A) (A) (A) (A) (A) (A)
                 (A) (A) (A) (A) (A) (A) (A) (A) (A) (A) (A) (A)
                 (A) (A) (A) (A) (A) (A) (A) (A) (A) (A) (A) (A)
                 (A) (A) (A) (A) (A) (A) (A) (A) (A) (A) (A) (A)
                 (A) (A) (A) (A) (A) (A) (A) (A) (A) (A) (A) (A)
                 (A) (A) (A) (A) (A) (A) (A) (A) (A) (A) (A) (A)
                 (A) (A) (A) (A) (A) (A) (A) (A) (A) (A) (A) (A)
                 (A) (A) (A) (A) (A) (A) (A) (A) (A) (A) (A) (A)
                 (A) (A) (A) (A) (A) (A) (A) (A) (A) (A) (A) (A)
                 (A) (A) (A) (A) (A) (A) (A) (A) (A) (A) (A) (A)
                 (A) (A) (A) (A) (A) (A) (A) (A) (A) (A) (A) (A)
                 (A) (A) (A) (A) (A) (A) (A) (A) (A) (A) (A) (A)
                 (A) (A) (A) (A) (A) (A) (A) (A) (A) (A) (A) (A)
                 (A) (A) (A) (A) (A) (A) (A) (A) (A) (A) (A) (A)
                 (A) (A) (A) (A) (A) (A) (A) (A) (A) (A) (A) (A)
                 (A) (A) (A) (A) (A) (A) (A) (A) (A) (A) (A) (A)
                 (A) (A) (A) (A) (A) (A) (A) (A) (A) (A) (A) (A)
                 (A) (A) (A) (A) (A) (A) (A) (A) (A) (A) (A) (A)
                 (A) (A) (A) (A) (A) (A) (A) (A) (A) (A) (A) (A)
                 (A) (A) (A) (A) (A) (A) (A) (A) (A) (A) (A) (A)
                 (A) (A) (A) (A) (A) (A) (A) (A) (A) (A) (A) (A)
                 (A) (A) (A) (A) (A) (A) (A) (A) (A) (A) (A) (A)
                 (A) (A) (A) (A) (A) (A) (A) (A) (A) (A) (A) (A)
                 (A) (A) (A) (A) (A) (A) (A) (A) (A) (A) (A) (A)
                 (A) (A) (A) (A) (A) (A) (A) (A) (A) (A) (A) (A)
                 (A) (A) (A) (A) (A) (A) (A) (A) (A) (A) (A) (A)
                 (A) (A) (A) (A) (A) (A) (A) (A) (A) (A) (A) (A)
                 (A) (A) (A) (A) (A) (A) (A) (A) (A) (A) (A) (A)
                 (A) (A) (A) (A) (A) (A) (A) (A) (A) (A) (A) (A)
                 (A) (A) (A) (A) (A) (A) (A) (A) (A) (A)
 The electronic state is 1-A.
 Alpha  occ. eigenvalues -- -483.29073-483.28394 -62.72429 -62.71728 -56.51427
 Alpha  occ. eigenvalues --  -56.51072 -56.51059 -56.50736 -56.50372 -56.50353
 Alpha  occ. eigenvalues --  -14.67579 -14.67225 -10.45469 -10.45018 -10.42239
 Alpha  occ. eigenvalues --  -10.40172 -10.39858 -10.39459 -10.38589 -10.38092
 Alpha  occ. eigenvalues --  -10.36559 -10.36526 -10.36327 -10.36015 -10.35799
 Alpha  occ. eigenvalues --  -10.35710 -10.35517 -10.35303 -10.35166 -10.34490
 Alpha  occ. eigenvalues --  -10.34416 -10.34193 -10.34140 -10.34106 -10.34087
 Alpha  occ. eigenvalues --  -10.34004 -10.33990 -10.33955 -10.33759 -10.31888
 Alpha  occ. eigenvalues --  -10.31284 -10.31115 -10.30575  -8.87032  -8.86308
 Alpha  occ. eigenvalues --   -6.90021  -6.68519  -6.67813  -6.67226  -6.67193
 Alpha  occ. eigenvalues --   -6.66502  -6.66446  -2.77072  -2.76701  -2.76676
 Alpha  occ. eigenvalues --   -2.76357  -2.75991  -2.75947  -2.75637  -2.75637
 Alpha  occ. eigenvalues --   -2.74895  -2.74894  -1.29868  -1.06579  -1.02140
 Alpha  occ. eigenvalues --   -1.00447  -1.00120  -0.98421  -0.94758  -0.93613
 Alpha  occ. eigenvalues --   -0.92752  -0.91975  -0.91132  -0.90504  -0.88280
 Alpha  occ. eigenvalues --   -0.86479  -0.85667  -0.84881  -0.83543  -0.82070
 Alpha  occ. eigenvalues --   -0.81373  -0.80931  -0.80076  -0.79425  -0.77901
 Alpha  occ. eigenvalues --   -0.77302  -0.76311  -0.74017  -0.72676  -0.71345
 Alpha  occ. eigenvalues --   -0.71156  -0.71058  -0.69753  -0.67667  -0.67201
 Alpha  occ. eigenvalues --   -0.65761  -0.64569  -0.63482  -0.62936  -0.62473
 Alpha  occ. eigenvalues --   -0.61860  -0.61181  -0.60190  -0.59611  -0.58852
 Alpha  occ. eigenvalues --   -0.58528  -0.57940  -0.57684  -0.56811  -0.56555
 Alpha  occ. eigenvalues --   -0.56035  -0.55503  -0.55260  -0.54556  -0.54295
 Alpha  occ. eigenvalues --   -0.53389  -0.53065  -0.52772  -0.52622  -0.52090
 Alpha  occ. eigenvalues --   -0.51364  -0.50264  -0.49488  -0.49302  -0.48958
 Alpha  occ. eigenvalues --   -0.48677  -0.48062  -0.47394  -0.47117  -0.46968
 Alpha  occ. eigenvalues --   -0.46511  -0.46453  -0.45823  -0.45435  -0.44980
 Alpha  occ. eigenvalues --   -0.43989  -0.43508  -0.43068  -0.42213  -0.41822
 Alpha  occ. eigenvalues --   -0.41704  -0.41403  -0.39889  -0.39584  -0.39219
 Alpha  occ. eigenvalues --   -0.38763  -0.38092  -0.36895  -0.36517  -0.35525
 Alpha  occ. eigenvalues --   -0.34700  -0.34262
 Alpha virt. eigenvalues --   -0.18952  -0.17471  -0.14838  -0.14016  -0.12737
 Alpha virt. eigenvalues --   -0.12127  -0.12024  -0.11362  -0.10277  -0.09741
 Alpha virt. eigenvalues --   -0.09156  -0.07445  -0.05729  -0.04824  -0.03875
 Alpha virt. eigenvalues --   -0.02997  -0.02510  -0.02020  -0.01337  -0.00604
 Alpha virt. eigenvalues --    0.00019   0.00226   0.01088   0.01382   0.01502
 Alpha virt. eigenvalues --    0.01875   0.02204   0.02575   0.03052   0.03207
 Alpha virt. eigenvalues --    0.03767   0.04053   0.04658   0.04805   0.05152
 Alpha virt. eigenvalues --    0.05542   0.05817   0.06492   0.06824   0.07024
 Alpha virt. eigenvalues --    0.07289   0.07936   0.08246   0.08441   0.09047
 Alpha virt. eigenvalues --    0.09486   0.09785   0.10507   0.10922   0.11312
 Alpha virt. eigenvalues --    0.12083   0.12592   0.13610   0.13784   0.13978
 Alpha virt. eigenvalues --    0.14980   0.15781   0.16146   0.16413   0.16579
 Alpha virt. eigenvalues --    0.17315   0.17680   0.17828   0.18455   0.18628
 Alpha virt. eigenvalues --    0.19260   0.19872   0.20285   0.21047   0.21358
 Alpha virt. eigenvalues --    0.21840   0.22726   0.23039   0.23580   0.24106
 Alpha virt. eigenvalues --    0.24328   0.25079   0.25405   0.25807   0.26693
 Alpha virt. eigenvalues --    0.26811   0.28136   0.28303   0.28725   0.29088
 Alpha virt. eigenvalues --    0.29473   0.29955   0.30557   0.30802   0.30950
 Alpha virt. eigenvalues --    0.31718   0.32492   0.33029   0.33079   0.33382
 Alpha virt. eigenvalues --    0.34137   0.34178   0.34343   0.35012   0.35466
 Alpha virt. eigenvalues --    0.35805   0.36066   0.36260   0.36998   0.37165
 Alpha virt. eigenvalues --    0.37459   0.37750   0.38227   0.38458   0.39276
 Alpha virt. eigenvalues --    0.39558   0.39900   0.40217   0.40551   0.40986
 Alpha virt. eigenvalues --    0.41711   0.42471   0.42531   0.42874   0.43172
 Alpha virt. eigenvalues --    0.43363   0.43600   0.43905   0.44448   0.44835
 Alpha virt. eigenvalues --    0.45411   0.45837   0.46199   0.46693   0.46968
 Alpha virt. eigenvalues --    0.47092   0.48090   0.48409   0.48511   0.48936
 Alpha virt. eigenvalues --    0.49811   0.50408   0.50872   0.51115   0.51954
 Alpha virt. eigenvalues --    0.52554   0.52868   0.53155   0.53444   0.54042
 Alpha virt. eigenvalues --    0.54399   0.54564   0.54861   0.55264   0.55436
 Alpha virt. eigenvalues --    0.55643   0.56032   0.56305   0.56639   0.57040
 Alpha virt. eigenvalues --    0.57288   0.57396   0.57760   0.57989   0.58190
 Alpha virt. eigenvalues --    0.58408   0.58800   0.58992   0.59342   0.59457
 Alpha virt. eigenvalues --    0.59639   0.60097   0.60120   0.60298   0.60609
 Alpha virt. eigenvalues --    0.60795   0.60905   0.61616   0.62060   0.62219
 Alpha virt. eigenvalues --    0.62468   0.62824   0.63341   0.63579   0.63749
 Alpha virt. eigenvalues --    0.64112   0.64282   0.64559   0.64862   0.65212
 Alpha virt. eigenvalues --    0.65971   0.66175   0.66342   0.66466   0.66944
 Alpha virt. eigenvalues --    0.67327   0.67847   0.68252   0.68480   0.68954
 Alpha virt. eigenvalues --    0.69282   0.69759   0.70063   0.70635   0.71085
 Alpha virt. eigenvalues --    0.71725   0.72134   0.72402   0.73090   0.73348
 Alpha virt. eigenvalues --    0.73547   0.74457   0.75402   0.75724   0.76824
 Alpha virt. eigenvalues --    0.77294   0.77602   0.77792   0.78335   0.78747
 Alpha virt. eigenvalues --    0.79939   0.80318   0.81014   0.81485   0.81672
 Alpha virt. eigenvalues --    0.82940   0.83627   0.85019   0.86080   0.86604
 Alpha virt. eigenvalues --    0.87191   0.88257   0.88955   0.89525   0.90620
 Alpha virt. eigenvalues --    0.90739   0.92846   0.93642   0.93897   0.94732
 Alpha virt. eigenvalues --    0.95500   0.96253   0.97352   0.98632   0.99034
 Alpha virt. eigenvalues --    0.99659   1.01099   1.01471   1.01934   1.02932
 Alpha virt. eigenvalues --    1.03144   1.03926   1.04934   1.05469   1.07047
 Alpha virt. eigenvalues --    1.07852   1.08172   1.08666   1.09146   1.10122
 Alpha virt. eigenvalues --    1.10909   1.11206   1.11495   1.12265   1.12887
 Alpha virt. eigenvalues --    1.14221   1.14402   1.15525   1.15968   1.16189
 Alpha virt. eigenvalues --    1.16860   1.17614   1.18062   1.18846   1.18952
 Alpha virt. eigenvalues --    1.19392   1.19716   1.20910   1.21144   1.22071
 Alpha virt. eigenvalues --    1.23145   1.23244   1.24608   1.26047   1.27124
 Alpha virt. eigenvalues --    1.27393   1.28950   1.29152   1.31978   1.33107
 Alpha virt. eigenvalues --    1.34750   1.35771   1.37466   1.38448   1.40135
 Alpha virt. eigenvalues --    1.41145   1.41529   1.42571   1.42959   1.43798
 Alpha virt. eigenvalues --    1.45143   1.45391   1.46103   1.46318   1.47841
 Alpha virt. eigenvalues --    1.48222   1.48852   1.49436   1.49672   1.50669
 Alpha virt. eigenvalues --    1.51124   1.52017   1.52346   1.53044   1.54451
 Alpha virt. eigenvalues --    1.55196   1.56480   1.58006   1.58314   1.59089
 Alpha virt. eigenvalues --    1.59302   1.59998   1.60676   1.60693   1.61299
 Alpha virt. eigenvalues --    1.61969   1.62344   1.62684   1.63000   1.63836
 Alpha virt. eigenvalues --    1.64522   1.64763   1.65365   1.65827   1.66190
 Alpha virt. eigenvalues --    1.66705   1.67296   1.67942   1.68157   1.68340
 Alpha virt. eigenvalues --    1.68909   1.69057   1.69178   1.69671   1.69870
 Alpha virt. eigenvalues --    1.70639   1.70940   1.71939   1.72197   1.72425
 Alpha virt. eigenvalues --    1.73199   1.73884   1.74235   1.74559   1.74995
 Alpha virt. eigenvalues --    1.75644   1.75855   1.76095   1.76730   1.77123
[...]
 Alpha virt. eigenvalues --    1.40875   1.40972   1.41590   1.41796   1.42021
 Alpha virt. eigenvalues --    1.42780   1.42935   1.43096   1.43616   1.43996
 Alpha virt. eigenvalues --    1.44344   1.44431   1.45003   1.45218   1.45368
 Alpha virt. eigenvalues --    1.45986   1.46311   1.46790   1.46960   1.47653
 Alpha virt. eigenvalues --    1.47930   1.48220   1.48905   1.49309   1.49667
 Alpha virt. eigenvalues --    1.49915   1.50045   1.50808   1.51000   1.51724
 Alpha virt. eigenvalues --    1.51915   1.52185   1.52608   1.53047   1.53175
 Alpha virt. eigenvalues --    1.53271   1.53472   1.54003   1.54379   1.54578
 Alpha virt. eigenvalues --    1.54756   1.55243   1.55477   1.55880   1.56108
 Alpha virt. eigenvalues --    1.56356   1.57084   1.57352   1.57603   1.57739
 Alpha virt. eigenvalues --    1.58069   1.58575   1.58893   1.59307   1.59751
 Alpha virt. eigenvalues --    1.59908   1.60478   1.60778   1.60818   1.61249
 Alpha virt. eigenvalues --    1.61702   1.62201   1.62550   1.62638   1.63712
 Alpha virt. eigenvalues --    1.63872   1.64571   1.64979   1.65243   1.65613
 Alpha virt. eigenvalues --    1.66171   1.66555   1.67042   1.67487   1.67721
 Alpha virt. eigenvalues --    1.67734   1.68948   1.69455   1.69743   1.69963
 Alpha virt. eigenvalues --    1.70442   1.70874   1.71073   1.71928   1.72683
 Alpha virt. eigenvalues --    1.72947   1.73418   1.73536   1.73894   1.74211
 Alpha virt. eigenvalues --    1.74867   1.75309   1.75867   1.76122   1.77001
 Alpha virt. eigenvalues --    1.77314   1.77671   1.77818   1.78140   1.78597
 Alpha virt. eigenvalues --    1.79393   1.79812   1.80154   1.80496   1.81143
 Alpha virt. eigenvalues --    1.81447   1.82499   1.82758   1.83196   1.83623
 Alpha virt. eigenvalues --    1.84125   1.84517   1.84901   1.85825   1.86067
 Alpha virt. eigenvalues --    1.86524   1.86868   1.87476   1.87734   1.88134
 Alpha virt. eigenvalues --    1.88673   1.89359   1.89868   1.90644   1.91212
 Alpha virt. eigenvalues --    1.91752   1.92390   1.92649   1.93125   1.93359
 Alpha virt. eigenvalues --    1.93848   1.94409   1.95020   1.95615   1.96683
 Alpha virt. eigenvalues --    1.97045   1.97269   1.97666   1.98332   1.98465
 Alpha virt. eigenvalues --    1.99040   1.99492   2.00547   2.00731   2.01277
 Alpha virt. eigenvalues --    2.02101   2.02696   2.02896   2.03358   2.04155
 Alpha virt. eigenvalues --    2.04789   2.05467   2.05756   2.05903   2.06550
 Alpha virt. eigenvalues --    2.07202   2.07824   2.09234   2.09465   2.09791
 Alpha virt. eigenvalues --    2.10190   2.10689   2.11323   2.11991   2.12186
 Alpha virt. eigenvalues --    2.12640   2.13404   2.13839   2.14168   2.14331
 Alpha virt. eigenvalues --    2.15288   2.15369   2.16496   2.17143   2.18267
 Alpha virt. eigenvalues --    2.18545   2.19071   2.19676   2.20204   2.20652
 Alpha virt. eigenvalues --    2.21340   2.22143   2.22388   2.22609   2.23611
 Alpha virt. eigenvalues --    2.24133   2.25036   2.25233   2.25891   2.26149
 Alpha virt. eigenvalues --    2.26580   2.27160   2.27516   2.28026   2.28242
 Alpha virt. eigenvalues --    2.28495   2.29613   2.29687   2.30540   2.31459
 Alpha virt. eigenvalues --    2.31609   2.32134   2.32429   2.32682   2.33598
 Alpha virt. eigenvalues --    2.33786   2.34538   2.34935   2.35333   2.35891
 Alpha virt. eigenvalues --    2.36581   2.36791   2.37150   2.37956   2.38531
 Alpha virt. eigenvalues --    2.38756   2.39139   2.40130   2.40369   2.40714
 Alpha virt. eigenvalues --    2.41210   2.41569   2.42286   2.42885   2.43749
 Alpha virt. eigenvalues --    2.44086   2.44520   2.44782   2.45286   2.45434
 Alpha virt. eigenvalues --    2.46041   2.46553   2.47011   2.47022   2.47430
 Alpha virt. eigenvalues --    2.48329   2.48531   2.49683   2.49970   2.50045
 Alpha virt. eigenvalues --    2.51055   2.51116   2.51701   2.52117   2.52988
 Alpha virt. eigenvalues --    2.53077   2.54023   2.54347   2.54543   2.54711
 Alpha virt. eigenvalues --    2.55107   2.55698   2.55787   2.56214   2.56501
 Alpha virt. eigenvalues --    2.56942   2.57563   2.57861   2.58535   2.58609
 Alpha virt. eigenvalues --    2.58866   2.59173   2.59625   2.60160   2.60255
 Alpha virt. eigenvalues --    2.60951   2.61478   2.61995   2.62256   2.62879
 Alpha virt. eigenvalues --    2.63501   2.63601   2.64129   2.64416   2.65019
 Alpha virt. eigenvalues --    2.65170   2.65625   2.65919   2.66482   2.66911
 Alpha virt. eigenvalues --    2.67444   2.67657   2.68322   2.68868   2.69044
 Alpha virt. eigenvalues --    2.69167   2.69809   2.70242   2.70734   2.71075
 Alpha virt. eigenvalues --    2.71244   2.71941   2.72463   2.73691   2.74017
 Alpha virt. eigenvalues --    2.74166   2.74408   2.75135   2.75304   2.75641
 Alpha virt. eigenvalues --    2.76066   2.76833   2.77039   2.77334   2.77615
 Alpha virt. eigenvalues --    2.78074   2.78462   2.78681   2.79259   2.79481
 Alpha virt. eigenvalues --    2.79799   2.80305   2.80946   2.81594   2.81696
 Alpha virt. eigenvalues --    2.81859   2.82371   2.83023   2.83311   2.83875
 Alpha virt. eigenvalues --    2.83942   2.84838   2.85585   2.85629   2.86569
 Alpha virt. eigenvalues --    2.86770   2.87725   2.88292   2.88888   2.89099
 Alpha virt. eigenvalues --    2.89618   2.90203   2.90489   2.90673   2.91587
 Alpha virt. eigenvalues --    2.92018   2.92339   2.92431   2.93259   2.93571
 Alpha virt. eigenvalues --    2.94280   2.94590   2.94781   2.96292   2.96659
 Alpha virt. eigenvalues --    2.97353   2.97537   2.97655   2.98209   2.98924
 Alpha virt. eigenvalues --    2.99584   3.00003   3.00389   3.01040   3.01645
 Alpha virt. eigenvalues --    3.01873   3.02430   3.02797   3.02908   3.03421
 Alpha virt. eigenvalues --    3.03814   3.04630   3.04955   3.05302   3.05700
 Alpha virt. eigenvalues --    3.06116   3.06335   3.06819   3.07331   3.07590
 Alpha virt. eigenvalues --    3.08010   3.08254   3.09052   3.09275   3.10305
 Alpha virt. eigenvalues --    3.10386   3.10576   3.11280   3.11475   3.11941
 Alpha virt. eigenvalues --    3.12370   3.12912   3.13460   3.13508   3.13834
 Alpha virt. eigenvalues --    3.14144   3.14899   3.15494   3.15693   3.15880
 Alpha virt. eigenvalues --    3.16406   3.16483   3.16982   3.17871   3.18099
 Alpha virt. eigenvalues --    3.18406   3.18863   3.19030   3.19224   3.19335
 Alpha virt. eigenvalues --    3.20290   3.20497   3.20677   3.21300   3.21689
 Alpha virt. eigenvalues --    3.21981   3.22344   3.22484   3.22787   3.23511
 Alpha virt. eigenvalues --    3.23648   3.24221   3.24655   3.25586   3.25967
 Alpha virt. eigenvalues --    3.26048   3.26562   3.27053   3.27253   3.27498
 Alpha virt. eigenvalues --    3.27712   3.28351   3.28991   3.29195   3.29580
 Alpha virt. eigenvalues --    3.29846   3.30163   3.30817   3.30981   3.31273
 Alpha virt. eigenvalues --    3.31827   3.31992   3.32574   3.32941   3.32977
 Alpha virt. eigenvalues --    3.33396   3.33794   3.33966   3.34527   3.34859
 Alpha virt. eigenvalues --    3.35248   3.36019   3.36233   3.36563   3.36631
 Alpha virt. eigenvalues --    3.37330   3.37447   3.37852   3.38376   3.38662
 Alpha virt. eigenvalues --    3.38927   3.39981   3.40364   3.40450   3.40648
 Alpha virt. eigenvalues --    3.41301   3.41867   3.42125   3.42512   3.42848
 Alpha virt. eigenvalues --    3.43352   3.43587   3.44502   3.45016   3.45337
 Alpha virt. eigenvalues --    3.45445   3.46046   3.46084   3.46639   3.47765
 Alpha virt. eigenvalues --    3.48177   3.48332   3.48684   3.49266   3.49554
 Alpha virt. eigenvalues --    3.50185   3.50835   3.51555   3.52012   3.52417
 Alpha virt. eigenvalues --    3.52838   3.53325   3.53518   3.53942   3.54725
 Alpha virt. eigenvalues --    3.55104   3.55858   3.56856   3.57300   3.57863
 Alpha virt. eigenvalues --    3.58576   3.59173   3.59733   3.59823   3.60338
 Alpha virt. eigenvalues --    3.61929   3.61938   3.62212   3.62486   3.63903
 Alpha virt. eigenvalues --    3.64301   3.64758   3.65120   3.65472   3.66214
 Alpha virt. eigenvalues --    3.66984   3.67162   3.67640   3.67977   3.68695
 Alpha virt. eigenvalues --    3.69136   3.69803   3.70678   3.71147   3.71789
 Alpha virt. eigenvalues --    3.72652   3.73072   3.74272   3.74577   3.74773
 Alpha virt. eigenvalues --    3.75590   3.75963   3.76678   3.77198   3.78203
 Alpha virt. eigenvalues --    3.79320   3.80884   3.81114   3.81508   3.82156
 Alpha virt. eigenvalues --    3.83482   3.84897   3.85702   3.86098   3.86782
 Alpha virt. eigenvalues --    3.87302   3.88829   3.89394   3.90567   3.92066
 Alpha virt. eigenvalues --    3.92350   3.92812   3.93693   3.94654   3.95105
 Alpha virt. eigenvalues --    3.95993   3.96671   3.97049   3.98110   3.98289
 Alpha virt. eigenvalues --    3.98934   3.99272   3.99659   4.00550   4.00982
 Alpha virt. eigenvalues --    4.01741   4.02473   4.03090   4.03696   4.04271
 Alpha virt. eigenvalues --    4.04491   4.05020   4.05236   4.05555   4.06031
 Alpha virt. eigenvalues --    4.06910   4.07027   4.07495   4.08101   4.08544
 Alpha virt. eigenvalues --    4.08764   4.10125   4.10616   4.11034   4.11090
 Alpha virt. eigenvalues --    4.11262   4.11346   4.12426   4.12870   4.13284
 Alpha virt. eigenvalues --    4.13758   4.14038   4.14549   4.14808   4.15189
 Alpha virt. eigenvalues --    4.15725   4.16823   4.17036   4.17978   4.18272
 Alpha virt. eigenvalues --    4.18713   4.19136   4.19593   4.20007   4.20788
 Alpha virt. eigenvalues --    4.21422   4.22135   4.22510   4.23556   4.24259
 Alpha virt. eigenvalues --    4.25159   4.25647   4.26443   4.27086   4.27715
 Alpha virt. eigenvalues --    4.28122   4.28392   4.29873   4.30385   4.31472
 Alpha virt. eigenvalues --    4.31771   4.32626   4.33276   4.34348   4.34542
 Alpha virt. eigenvalues --    4.35271   4.36123   4.36934   4.37439   4.38152
 Alpha virt. eigenvalues --    4.38277   4.39864   4.40845   4.41534   4.42046
 Alpha virt. eigenvalues --    4.42400   4.43452   4.44407   4.44852   4.46398
 Alpha virt. eigenvalues --    4.47242   4.48638   4.49465   4.49724   4.49968
 Alpha virt. eigenvalues --    4.51708   4.52975   4.53664   4.55669   4.56274
 Alpha virt. eigenvalues --    4.57297   4.58894   4.59541   4.59996   4.62484
 Alpha virt. eigenvalues --    4.62577   4.64002   4.64565   4.64952   4.66007
 Alpha virt. eigenvalues --    4.66744   4.68398   4.69537   4.69856   4.70471
 Alpha virt. eigenvalues --    4.71899   4.72708   4.73614   4.74683   4.75158
 Alpha virt. eigenvalues --    4.75912   4.76472   4.77222   4.77874   4.79369
 Alpha virt. eigenvalues --    4.81948   4.82066   4.82900   4.84937   4.85336
 Alpha virt. eigenvalues --    4.87994   4.89720   4.89927   4.90436   4.91786
 Alpha virt. eigenvalues --    4.93128   4.93841   4.94489   4.95624   4.98144
 Alpha virt. eigenvalues --    4.99510   5.00782   5.02066   5.05458   5.06375
 Alpha virt. eigenvalues --    5.06935   5.07631   5.08901   5.09647   5.12356
 Alpha virt. eigenvalues --    5.14053   5.16120   5.17224   5.19317   5.20365
 Alpha virt. eigenvalues --    5.22826   5.23761   5.25135   5.28777   5.32560
 Alpha virt. eigenvalues --    5.35162   5.36347   5.36351   5.39515   5.39824
 Alpha virt. eigenvalues --    5.43232   5.45433   5.47527   5.49048   5.50284
 Alpha virt. eigenvalues --    5.51876   5.54121   5.57830   5.64546   5.69121
 Alpha virt. eigenvalues --    5.75149   5.77715   5.86601   5.99375   6.06000
 Alpha virt. eigenvalues --    6.21823   6.97643   7.73843   7.74473  15.52370
 Alpha virt. eigenvalues --   22.27622  22.28390  22.32527  22.39783  22.39805
 Alpha virt. eigenvalues --   22.41192  22.44273  22.47569  22.48442  22.61005
 Alpha virt. eigenvalues --   22.64202  22.66531  22.70029  22.72124  22.72917
 Alpha virt. eigenvalues --   22.75417  22.77589  22.79277  22.82513  22.83875
 Alpha virt. eigenvalues --   22.86522  22.89779  22.94246  22.95129  23.01347
 Alpha virt. eigenvalues --   23.08253  23.10627  23.18331  23.24023  23.45407
 Alpha virt. eigenvalues --   23.75408  32.36607  33.08409
          Condensed to atoms (all electrons):
 Mulliken charges:
               1
     1  C   -0.093589
     2  C   -0.386600
     3  C    0.150701
     4  C   -0.110972
     5  C   -0.209301
     6  C   -0.091865
     7  C   -0.093230
     8  B   -0.353195
     9  C   -0.331605
    10  C    0.099488
    11  C   -0.398927
    12  C   -0.359028
    13  C   -0.360779
    14  C    0.172471
    15  C   -0.172371
    16  C    0.162198
    17  Br  -0.058858
    18  C   -0.268999
    19  C    0.146854
    20  Br  -0.041263
    21  C   -0.207218
    22  C    0.120176
    23  C    0.133025
    24  C    0.337889
    25  C   -0.367300
    26  C   -0.075994
    27  C   -0.204511
    28  C   -0.173994
    29  C    0.032192
    30  C   -0.434036
    31  C   -0.065920
    32  N    0.263506
    33  C   -0.066181
    34  C   -0.088519
    35  C   -0.069153
    36  N   -0.023817
    37  H    0.146174
    38  H    0.140324
    39  H    0.143185
    40  H    0.138047
    41  H    0.122045
    42  H    0.118881
    43  H    0.133767
    44  H    0.124918
    45  H    0.143591
    46  H    0.152970
    47  H    0.144516
    48  H    0.118459
    49  H    0.122015
    50  H    0.143320
    51  H    0.113520
    52  H    0.148759
    53  H    0.117327
    54  H    0.163574
    55  H    0.151376
    56  H    0.143025
    57  H    0.149017
    58  H    0.139297
    59  H    0.139481
    60  H    0.146407
    61  H    0.152249
    62  H    0.171069
    63  H    0.194842
    64  H    0.192484
    65  H    0.200968
    66  H    0.273122
 Sum of Mulliken charges =   1.00000
 Mulliken charges with hydrogens summed into heavy atoms:
               1
     1  C    0.052584
     2  C   -0.246276
     3  C    0.150701
     4  C    0.032213
     5  C   -0.071254
     6  C    0.030179
     7  C   -0.093230
     8  B   -0.353195
     9  C   -0.078957
    10  C    0.099488
    11  C    0.022552
    12  C    0.025963
    13  C    0.044820
    14  C    0.172471
    15  C   -0.055044
    16  C    0.162198
    17  Br  -0.058858
    18  C   -0.105425
    19  C    0.146854
    20  Br  -0.041263
    21  C   -0.055842
    22  C    0.120176
    23  C    0.133025
    24  C    0.337889
    25  C   -0.224276
    26  C    0.073023
    27  C   -0.065215
    28  C   -0.034513
    29  C    0.032192
    30  C    0.035690
    31  C   -0.065920
    32  N    0.263506
    33  C    0.128660
    34  C    0.103965
    35  C    0.131815
    36  N    0.249305
 Electronic spatial extent (au):  <R**2>=          17366.6998
 Charge=              1.0000 electrons
 Dipole moment (field-independent basis, Debye):
    X=            -11.7512    Y=             -2.2924    Z=             -3.8964  Tot=             12.5908
 Quadrupole moment (field-independent basis, Debye-Ang):
   XX=           -170.7861   YY=           -196.6769   ZZ=           -206.6453
   XY=             10.0249   XZ=              6.8017   YZ=             -0.6416
 Traceless Quadrupole moment (field-independent basis, Debye-Ang):
   XX=             20.5833   YY=             -5.3075   ZZ=            -15.2759
   XY=             10.0249   XZ=              6.8017   YZ=             -0.6416
 Octapole moment (field-independent basis, Debye-Ang**2):
  XXX=            -41.6897  YYY=             40.2610  ZZZ=            -38.8701  XYY=              2.0374
  XXY=             -5.6549  XXZ=            -55.0710  XZZ=             37.3467  YZZ=            -31.8913
  YYZ=             -1.9799  XYZ=            -10.9421
 Hexadecapole moment (field-independent basis, Debye-Ang**3):
 XXXX=          -7618.2047 YYYY=          -6290.0502 ZZZZ=          -5095.0938 XXXY=            221.8826
 XXXZ=            167.7356 YYYX=             73.1682 YYYZ=            202.5294 ZZZX=            -91.4734
 ZZZY=            250.4429 XXYY=          -2345.7903 XXZZ=          -2216.0708 YYZZ=          -1951.6142
 XXYZ=            160.4185 YYXZ=             51.0293 ZZXY=              7.9709
 N-N= 5.322557982990D+03 E-N=-2.600855689406D+04  KE= 6.466353912399D+03
 No NMR shielding tensors so no spin-rotation constants.
 Leave Link  601 at Fri Jan 24 19:19:19 2025, MaxMem=  3221225472 cpu:              24.6 elap:               1.3
 (Enter /software/gaussian/G16-C.01/avx2/g16/l9999.exe)
 Unable to Open any file for archive entry.
 1\1\GINC-NODE37\SP\RPBE1PBE\def2TZVP\C31H30B1Br2N2(1+)\LAPLAZA\24-Jan-
 2025\0\\#p def2tzvp pbe1pbe integral=ultrafinegrid geom=allcheck guess
 =read em=gd3bj\\with_proton\\1,1\C,0,-4.0345435716,-1.2737104229,2.216
 6878109\C,0,-3.5661700773,-2.1035058338,1.2668769857\C,0,-2.1470612333
 ,-2.2884672443,0.9182548048\C,0,-1.6173747017,-3.5891950671,0.94478973
 72\C,0,-0.2781071865,-3.82312495,0.6643310372\C,0,0.5581537273,-2.7532
 709919,0.3525697999\C,0,0.0770722692,-1.434950861,0.3223685943\B,0,1.0
 945119435,-0.2625731025,0.0760603794\C,0,2.2216345207,-0.3690938081,-1
 .0335157339\C,0,3.7116860278,-0.3322938823,-0.5732643514\C,0,3.9575278
 357,-1.4373898506,0.4564285948\C,0,4.5898670043,-0.5824231058,-1.80199
 37072\C,0,4.0900037987,1.0173635474,0.038110792\C,0,0.9549835644,1.048
 1572603,0.9189068923\C,0,0.9818345484,2.305898993,0.3003737555\C,0,0.7
 940795573,3.4616221018,1.0524422968\Br,0,0.721379515,5.1292421691,0.17
 95839683\C,0,0.6457953954,3.4051636334,2.4371786137\C,0,0.6537367429,2
 .1523809714,3.052546662\Br,0,0.4296367936,2.0510661524,4.9205186441\C,
 0,0.7770709582,0.981198981,2.3098344664\C,0,-1.3048329591,-1.220838096
 1,0.5755514112\C,0,-1.8526001053,0.1357738389,0.2776493323\C,0,-2.2516
 808936,1.0519354551,1.2621181325\C,0,-2.4724979039,0.6566239417,2.6598
 004501\C,0,-3.2742023645,-0.3480440494,3.0550636218\C,0,-2.4466444221,
 2.3893342076,0.89156535\C,0,-2.3411625684,2.809880798,-0.4278612003\C,
 0,-2.0640164138,1.9029775349,-1.4541441759\C,0,-2.0072015787,2.3357485
 829,-2.8886472058\C,0,-1.8246188057,0.5811501707,-1.0571887651\N,0,-1.
 6040030959,-0.4119114177,-2.0685969962\C,0,-2.4266088528,-1.397660916,
 -2.4480372253\C,0,-1.7845019941,-2.1638442414,-3.4182891435\C,0,-0.534
 8942365,-1.5799498243,-3.5836290201\N,0,-0.4672622177,-0.5244601977,-2
 .765047622\H,0,-5.0982094386,-1.3581244491,2.4711963508\H,0,-4.2744586
 407,-2.8099429344,0.819330272\H,0,-2.2775890205,-4.4233587307,1.195854
 8137\H,0,0.1171176112,-4.8409543882,0.6910231644\H,0,1.6126664858,-2.9
 447658915,0.1440857924\H,0,2.1045348854,0.5004960865,-1.719325989\H,0,
 2.0864823126,-1.2800943064,-1.6426597329\H,0,3.7528360077,-2.435535125
 9,0.0375479502\H,0,5.0075918456,-1.4320927118,0.7857611712\H,0,3.33219
 02187,-1.304029837,1.3549030165\H,0,5.6555815079,-0.5882734085,-1.5262
 730005\H,0,4.3610855019,-1.5537443694,-2.2691558507\H,0,4.4484377345,0
 .2039664759,-2.5607617234\H,0,5.1681148236,1.0358374724,0.2591958306\H
 ,0,3.8793840202,1.8497015819,-0.6520042227\H,0,3.5558139582,1.21579176
 21,0.97710453\H,0,1.1255333947,2.3990853363,-0.7776918845\H,0,0.519795
 8488,4.3154570077,3.0243852193\H,0,0.7305121617,0.0143490033,2.8150252
 939\H,0,-2.0611865031,1.3177783859,3.4288759835\H,0,-3.4665116872,-0.4
 351890307,4.1312615648\H,0,-2.6974246737,3.1169793877,1.666923481\H,0,
 -2.5031501004,3.8610182151,-0.6753557687\H,0,-0.9742965687,2.566828000
 2,-3.1997214022\H,0,-2.3984678603,1.5683962272,-3.5729297346\H,0,-2.59
 43777114,3.2508220044,-3.0394543907\H,0,-3.4148123077,-1.479510311,-1.
 9996603683\H,0,-2.1777697321,-3.0332134291,-3.9381435466\H,0,0.3038555
 431,-1.8464475329,-4.2240768176\H,0,0.3432496331,0.0439353933,-2.52198
 00282\\Version=ES64L-G16RevC.01\State=1-A\HF=-6480.1570599\RMSD=2.080e
 -09\Dipole=-1.6346867,-2.654298,-3.8497679\Quadrupole=-6.3467099,-1.11
 50011,7.4617109,4.0918592,1.3377195,14.2685341\PG=C01 [X(C31H30B1Br2N2
 )]\\@
 The archive entry for this job was punched.


 FESTINA LENTE!
     - IMPERATOR AUGUSTUS 
 Job cpu time:       0 days  9 hours 54 minutes 20.4 seconds.
 Elapsed time:       0 days  0 hours 24 minutes 51.6 seconds.
 File lengths (MBytes):  RWF=    906 Int=      0 D2E=      0 Chk=    122 Scr=      1
 Normal termination of Gaussian 16 at Fri Jan 24 19:19:20 2025.
