 Entering Gaussian System, Link 0=g16
 Input=with_hydride.com
 Output=with_hydride.log
 Initial command:
 /software/gaussian/G16-C.01/avx2/g16/l1.exe "/scratch/laplaza/9953605.slurm/Gau-152171.inp" -scrdir="/scratch/laplaza/9953605.slurm/"
 Entering Link 1 = /software/gaussian/G16-C.01/avx2/g16/l1.exe PID=    152172.
  
 Copyright (c) 1988-2019, Gaussian, Inc.  All Rights Reserved.
  
 This is part of the Gaussian(R) 16 program.  It is based on
 the Gaussian(R) 09 system (copyright 2009, Gaussian, Inc.),
 the Gaussian(R) 03 system (copyright 2003, Gaussian, Inc.),
 the Gaussian(R) 98 system (copyright 1998, Gaussian, Inc.),
 the Gaussian(R) 94 system (copyright 1995, Gaussian, Inc.),
 the Gaussian 92(TM) system (copyright 1992, Gaussian, Inc.),
 the Gaussian 90(TM) system (copyright 1990, Gaussian, Inc.),
 the Gaussian 88(TM) system (copyright 1988, Gaussian, Inc.),
 the Gaussian 86(TM) system (copyright 1986, Carnegie Mellon
 University), and the Gaussian 82(TM) system (copyright 1983,
 Carnegie Mellon University). Gaussian is a federally registered
 trademark of Gaussian, Inc.
  
 This software contains proprietary and confidential information,
 including trade secrets, belonging to Gaussian, Inc.
  
 This software is provided under written license and may be
 used, copied, transmitted, or stored only in accord with that
 written license.
  
 The following legend is applicable only to US Government
 contracts under FAR:
  
                    RESTRICTED RIGHTS LEGEND
  
 Use, reproduction and disclosure by the US Government is
 subject to restrictions as set forth in subparagraphs (a)
 and (c) of the Commercial Computer Software - Restricted
 Rights clause in FAR 52.227-19.
  
 Gaussian, Inc.
 340 Quinnipiac St., Bldg. 40, Wallingford CT 06492
  
  
 ---------------------------------------------------------------
 Warning -- This program may not be used in any manner that
 competes with the business of Gaussian, Inc. or will provide
 assistance to any competitor of Gaussian, Inc.  The licensee
 of this program is prohibited from giving any competitor of
 Gaussian, Inc. access to this program.  By using this program,
 the user acknowledges that Gaussian, Inc. is engaged in the
 business of creating and licensing software in the field of
 computational chemistry and represents and warrants to the
 licensee that it is not a competitor of Gaussian, Inc. and that
 it will not use this program in any manner prohibited above.
 ---------------------------------------------------------------
  

 Cite this work as:
 Gaussian 16, Revision C.01,
 M. J. Frisch, G. W. Trucks, H. B. Schlegel, G. E. Scuseria, 
 M. A. Robb, J. R. Cheeseman, G. Scalmani, V. Barone, 
 G. A. Petersson, H. Nakatsuji, X. Li, M. Caricato, A. V. Marenich, 
 J. Bloino, B. G. Janesko, R. Gomperts, B. Mennucci, H. P. Hratchian, 
 J. V. Ortiz, A. F. Izmaylov, J. L. Sonnenberg, D. Williams-Young, 
 F. Ding, F. Lipparini, F. Egidi, J. Goings, B. Peng, A. Petrone, 
 T. Henderson, D. Ranasinghe, V. G. Zakrzewski, J. Gao, N. Rega, 
 G. Zheng, W. Liang, M. Hada, M. Ehara, K. Toyota, R. Fukuda, 
 J. Hasegawa, M. Ishida, T. Nakajima, Y. Honda, O. Kitao, H. Nakai, 
 T. Vreven, K. Throssell, J. A. Montgomery, Jr., J. E. Peralta, 
 F. Ogliaro, M. J. Bearpark, J. J. Heyd, E. N. Brothers, K. N. Kudin, 
 V. N. Staroverov, T. A. Keith, R. Kobayashi, J. Normand, 
 K. Raghavachari, A. P. Rendell, J. C. Burant, S. S. Iyengar, 
 J. Tomasi, M. Cossi, J. M. Millam, M. Klene, C. Adamo, R. Cammi, 
 J. W. Ochterski, R. L. Martin, K. Morokuma, O. Farkas, 
 J. B. Foresman, and D. J. Fox, Gaussian, Inc., Wallingford CT, 2019.
 
 ******************************************
 Gaussian 16:  ES64L-G16RevC.01  3-Jul-2019
                24-Jan-2025 
 ******************************************
 %nprocshared=24
 Will use up to   24 processors via shared memory.
 %mem=24GB
 %chk=with_hydride.chk
 -------------------------------------------------------------------
 #p opt freq=noraman def2svp pbe1pbe em=gd3bj integral=ultrafinegrid
 -------------------------------------------------------------------
 1/18=20,19=15,26=4,38=1/1,3;
 2/9=110,12=2,17=6,18=5,40=1/2;
 3/5=43,7=101,11=2,25=1,30=1,71=1,74=-13,75=-5,124=41/1,2,3;
 4//1;
 5/5=2,38=5/2;
 6/7=2,8=2,9=2,10=2,28=1/1;
 7//1,2,3,16;
 1/18=20,19=15,26=4/3(2);
 2/9=110/2;
 99//99;
 2/9=110/2;
 3/5=43,7=101,11=2,25=1,30=1,71=1,74=-13,75=-5,124=41/1,2,3;
 4/5=5,16=3,69=1/1;
 5/5=2,38=5/2;
 7//1,2,3,16;
 1/18=20,19=15,26=4/3(-5);
 2/9=110/2;
 6/7=2,8=2,9=2,10=2,19=2,28=1/1;
 99/9=1/99;
 Leave Link    1 at Fri Jan 24 16:51:54 2025, MaxMem=  3221225472 cpu:               1.6 elap:               0.1
 (Enter /software/gaussian/G16-C.01/avx2/g16/l101.exe)
 ------------
 with_hydride
 ------------
 Symbolic Z-matrix:
 Charge = -1 Multiplicity = 1
 C                    -4.13939  -1.34132   2.20881 
 C                    -3.63145  -2.09961   1.21632 
 C                    -2.18325  -2.29125   1.00126 
 C                    -1.69908  -3.60931   1.09235 
 C                    -0.35156  -3.88314   0.87593 
 C                     0.51624  -2.8344    0.59832 
 C                     0.05238  -1.51608   0.4977 
 B                     1.12799  -0.36635   0.12256 
 C                     2.23374  -0.63252  -1.02486 
 C                     3.73926  -0.58428  -0.57696 
 C                     4.03211  -1.60619   0.51816 
 C                     4.5976   -0.88705  -1.81932 
 C                     4.12587   0.80436  -0.0706 
 C                     0.9807    1.07971   0.76731 
 C                     1.01488   2.21507  -0.06046 
 C                     0.84365   3.4812    0.53031 
 Br                    0.8557    5.01557  -0.59481 
 C                     0.6639    3.61185   1.9053 
 C                     0.65488   2.49264   2.70634 
 Br                    0.3994    2.67205   4.60934 
 C                     0.78865   1.21036   2.13865 
 C                    -1.3409   -1.2268    0.67616 
 C                    -1.90539   0.11959   0.3708 
 C                    -2.39827   0.92136   1.43493 
 C                    -2.50761   0.43753   2.77972 
 C                    -3.30117  -0.58779   3.15516 
 C                    -2.7303    2.23085   1.1685 
 C                    -2.65674   2.78631  -0.12263 
 C                    -2.27246   1.96041  -1.18302 
 C                    -2.21988   2.55683  -2.56795 
 C                    -1.87577   0.63479  -0.96279 
 N                    -1.44019  -0.20581  -2.06353 
 C                    -1.91239  -1.41696  -2.36911 
 C                    -1.22392  -1.89825  -3.4687 
 C                    -0.32911  -0.88525  -3.76814 
 N                    -0.47218   0.15609  -2.89223 
 H                    -5.2074   -1.37736   2.37 
 H                    -4.33347  -2.71168   0.67426 
 H                    -2.37074  -4.42392   1.33473 
 H                     0.00682  -4.86578   0.98066 
 H                     1.57352  -3.07356   0.4727 
 H                     2.05777   0.11061  -1.80266 
 H                     2.01967  -1.632    -1.46542 
 H                     3.83644  -2.66656   0.14335 
 H                     5.09551  -1.56836   0.81287 
 H                     3.43417  -1.45639   1.42007 
 H                     5.6962   -0.89432  -1.54099 
 H                     4.37874  -1.91729  -2.21151 
 H                     4.44089  -0.13807  -2.62287 
 H                     5.2092    0.89984   0.09911 
 H                     3.82849   1.61141  -0.79295 
 H                     3.6484    1.04189   0.91315 
 H                     1.15774   2.13774  -1.12943 
 H                     0.54711   4.5911    2.34352 
 H                     0.77638   0.33031   2.7997 
 H                    -2.03999   1.01043   3.61248 
 H                    -3.46148  -0.78845   4.204 
 H                    -3.07118   2.8897    1.98318 
 H                    -2.92838   3.81613  -0.27781 
 H                    -1.15962   2.80691  -2.81171 
 H                    -2.63094   1.83967  -3.32669 
 H                    -2.82446   3.48909  -2.62321 
 H                    -2.71079  -1.93257  -1.85978 
 H                    -1.36801  -2.83154  -3.96896 
 H                     0.3955   -0.89653  -4.57254 
 H                     0.39482  -0.17761  -0.67545 
 
 ITRead=  0  0  0  0  0  0  0  0  0  0  0  0  0  0  0  0  0  0  0  0
 ITRead=  0  0  0  0  0  0  0  0  0  0  0  0  0  0  0  0  0  0  0  0
 ITRead=  0  0  0  0  0  0  0  0  0  0  0  0  0  0  0  0  0  0  0  0
 ITRead=  0  0  0  0  0  0
 MicOpt= -1 -1 -1 -1 -1 -1 -1 -1 -1 -1 -1 -1 -1 -1 -1 -1 -1 -1 -1 -1
 MicOpt= -1 -1 -1 -1 -1 -1 -1 -1 -1 -1 -1 -1 -1 -1 -1 -1 -1 -1 -1 -1
 MicOpt= -1 -1 -1 -1 -1 -1 -1 -1 -1 -1 -1 -1 -1 -1 -1 -1 -1 -1 -1 -1
 MicOpt= -1 -1 -1 -1 -1 -1
 NAtoms=     66 NQM=       66 NQMF=       0 NMMI=      0 NMMIF=      0
                NMic=       0 NMicF=      0.
                    Isotopes and Nuclear Properties:
 (Nuclear quadrupole moments (NQMom) in fm**2, nuclear magnetic moments (NMagM)
  in nuclear magnetons)

  Atom         1           2           3           4           5           6           7           8           9          10
 IAtWgt=          12          12          12          12          12          12          12          11          12          12
 AtmWgt=  12.0000000  12.0000000  12.0000000  12.0000000  12.0000000  12.0000000  12.0000000  11.0093053  12.0000000  12.0000000
 NucSpn=           0           0           0           0           0           0           0           3           0           0
 AtZEff=  -0.0000000  -0.0000000  -0.0000000  -0.0000000  -0.0000000  -0.0000000  -0.0000000  -0.0000000  -0.0000000  -0.0000000
 NQMom=    0.0000000   0.0000000   0.0000000   0.0000000   0.0000000   0.0000000   0.0000000   4.0590000   0.0000000   0.0000000
 NMagM=    0.0000000   0.0000000   0.0000000   0.0000000   0.0000000   0.0000000   0.0000000   2.6886370   0.0000000   0.0000000
 AtZNuc=   6.0000000   6.0000000   6.0000000   6.0000000   6.0000000   6.0000000   6.0000000   5.0000000   6.0000000   6.0000000

  Atom        11          12          13          14          15          16          17          18          19          20
 IAtWgt=          12          12          12          12          12          12          79          12          12          79
 AtmWgt=  12.0000000  12.0000000  12.0000000  12.0000000  12.0000000  12.0000000  78.9183361  12.0000000  12.0000000  78.9183361
 NucSpn=           0           0           0           0           0           0           3           0           0           3
 AtZEff=  -0.0000000  -0.0000000  -0.0000000  -0.0000000  -0.0000000  -0.0000000  -0.0000000  -0.0000000  -0.0000000  -0.0000000
 NQMom=    0.0000000   0.0000000   0.0000000   0.0000000   0.0000000   0.0000000  31.3000000   0.0000000   0.0000000  31.3000000
 NMagM=    0.0000000   0.0000000   0.0000000   0.0000000   0.0000000   0.0000000   2.1063990   0.0000000   0.0000000   2.1063990
 AtZNuc=   6.0000000   6.0000000   6.0000000   6.0000000   6.0000000   6.0000000  35.0000000   6.0000000   6.0000000  35.0000000

  Atom        21          22          23          24          25          26          27          28          29          30
 IAtWgt=          12          12          12          12          12          12          12          12          12          12
 AtmWgt=  12.0000000  12.0000000  12.0000000  12.0000000  12.0000000  12.0000000  12.0000000  12.0000000  12.0000000  12.0000000
 NucSpn=           0           0           0           0           0           0           0           0           0           0
 AtZEff=  -0.0000000  -0.0000000  -0.0000000  -0.0000000  -0.0000000  -0.0000000  -0.0000000  -0.0000000  -0.0000000  -0.0000000
 NQMom=    0.0000000   0.0000000   0.0000000   0.0000000   0.0000000   0.0000000   0.0000000   0.0000000   0.0000000   0.0000000
 NMagM=    0.0000000   0.0000000   0.0000000   0.0000000   0.0000000   0.0000000   0.0000000   0.0000000   0.0000000   0.0000000
 AtZNuc=   6.0000000   6.0000000   6.0000000   6.0000000   6.0000000   6.0000000   6.0000000   6.0000000   6.0000000   6.0000000

  Atom        31          32          33          34          35          36          37          38          39          40
 IAtWgt=          12          14          12          12          12          14           1           1           1           1
 AtmWgt=  12.0000000  14.0030740  12.0000000  12.0000000  12.0000000  14.0030740   1.0078250   1.0078250   1.0078250   1.0078250
 NucSpn=           0           2           0           0           0           2           1           1           1           1
 AtZEff=  -0.0000000  -0.0000000  -0.0000000  -0.0000000  -0.0000000  -0.0000000  -0.0000000  -0.0000000  -0.0000000  -0.0000000
 NQMom=    0.0000000   2.0440000   0.0000000   0.0000000   0.0000000   2.0440000   0.0000000   0.0000000   0.0000000   0.0000000
 NMagM=    0.0000000   0.4037610   0.0000000   0.0000000   0.0000000   0.4037610   2.7928460   2.7928460   2.7928460   2.7928460
 AtZNuc=   6.0000000   7.0000000   6.0000000   6.0000000   6.0000000   7.0000000   1.0000000   1.0000000   1.0000000   1.0000000

  Atom        41          42          43          44          45          46          47          48          49          50
 IAtWgt=           1           1           1           1           1           1           1           1           1           1
 AtmWgt=   1.0078250   1.0078250   1.0078250   1.0078250   1.0078250   1.0078250   1.0078250   1.0078250   1.0078250   1.0078250
 NucSpn=           1           1           1           1           1           1           1           1           1           1
 AtZEff=  -0.0000000  -0.0000000  -0.0000000  -0.0000000  -0.0000000  -0.0000000  -0.0000000  -0.0000000  -0.0000000  -0.0000000
 NQMom=    0.0000000   0.0000000   0.0000000   0.0000000   0.0000000   0.0000000   0.0000000   0.0000000   0.0000000   0.0000000
 NMagM=    2.7928460   2.7928460   2.7928460   2.7928460   2.7928460   2.7928460   2.7928460   2.7928460   2.7928460   2.7928460
 AtZNuc=   1.0000000   1.0000000   1.0000000   1.0000000   1.0000000   1.0000000   1.0000000   1.0000000   1.0000000   1.0000000

  Atom        51          52          53          54          55          56          57          58          59          60
 IAtWgt=           1           1           1           1           1           1           1           1           1           1
 AtmWgt=   1.0078250   1.0078250   1.0078250   1.0078250   1.0078250   1.0078250   1.0078250   1.0078250   1.0078250   1.0078250
 NucSpn=           1           1           1           1           1           1           1           1           1           1
 AtZEff=  -0.0000000  -0.0000000  -0.0000000  -0.0000000  -0.0000000  -0.0000000  -0.0000000  -0.0000000  -0.0000000  -0.0000000
 NQMom=    0.0000000   0.0000000   0.0000000   0.0000000   0.0000000   0.0000000   0.0000000   0.0000000   0.0000000   0.0000000
 NMagM=    2.7928460   2.7928460   2.7928460   2.7928460   2.7928460   2.7928460   2.7928460   2.7928460   2.7928460   2.7928460
 AtZNuc=   1.0000000   1.0000000   1.0000000   1.0000000   1.0000000   1.0000000   1.0000000   1.0000000   1.0000000   1.0000000

  Atom        61          62          63          64          65          66
 IAtWgt=           1           1           1           1           1           1
 AtmWgt=   1.0078250   1.0078250   1.0078250   1.0078250   1.0078250   1.0078250
 NucSpn=           1           1           1           1           1           1
 AtZEff=  -0.0000000  -0.0000000  -0.0000000  -0.0000000  -0.0000000  -0.0000000
 NQMom=    0.0000000   0.0000000   0.0000000   0.0000000   0.0000000   0.0000000
 NMagM=    2.7928460   2.7928460   2.7928460   2.7928460   2.7928460   2.7928460
 AtZNuc=   1.0000000   1.0000000   1.0000000   1.0000000   1.0000000   1.0000000
 Leave Link  101 at Fri Jan 24 16:51:54 2025, MaxMem=  3221225472 cpu:               9.8 elap:               0.4
 (Enter /software/gaussian/G16-C.01/avx2/g16/l103.exe)

 GradGradGradGradGradGradGradGradGradGradGradGradGradGradGradGradGradGrad
 Berny optimization.
 Initialization pass.
                           ----------------------------
                           !    Initial Parameters    !
                           ! (Angstroms and Degrees)  !
 --------------------------                            --------------------------
 ! Name  Definition              Value          Derivative Info.                !
 --------------------------------------------------------------------------------
 ! R1    R(1,2)                  1.3483         estimate D2E/DX2                !
 ! R2    R(1,26)                 1.4717         estimate D2E/DX2                !
 ! R3    R(1,37)                 1.0807         estimate D2E/DX2                !
 ! R4    R(2,3)                  1.4766         estimate D2E/DX2                !
 ! R5    R(2,38)                 1.0776         estimate D2E/DX2                !
 ! R6    R(3,4)                  1.4071         estimate D2E/DX2                !
 ! R7    R(3,22)                 1.3958         estimate D2E/DX2                !
 ! R8    R(4,5)                  1.392          estimate D2E/DX2                !
 ! R9    R(4,39)                 1.0833         estimate D2E/DX2                !
 ! R10   R(5,6)                  1.3892         estimate D2E/DX2                !
 ! R11   R(5,40)                 1.0512         estimate D2E/DX2                !
 ! R12   R(6,7)                  1.4012         estimate D2E/DX2                !
 ! R13   R(6,41)                 1.0912         estimate D2E/DX2                !
 ! R14   R(7,8)                  1.6185         estimate D2E/DX2                !
 ! R15   R(7,22)                 1.4341         estimate D2E/DX2                !
 ! R16   R(8,9)                  1.6156         estimate D2E/DX2                !
 ! R17   R(8,14)                 1.5901         estimate D2E/DX2                !
 ! R18   R(8,66)                 1.1            estimate D2E/DX2                !
 ! R19   R(9,10)                 1.5715         estimate D2E/DX2                !
 ! R20   R(9,42)                 1.09           estimate D2E/DX2                !
 ! R21   R(9,43)                 1.113          estimate D2E/DX2                !
 ! R22   R(10,11)                1.5262         estimate D2E/DX2                !
 ! R23   R(10,12)                1.5401         estimate D2E/DX2                !
 ! R24   R(10,13)                1.5278         estimate D2E/DX2                !
 ! R25   R(11,44)                1.1416         estimate D2E/DX2                !
 ! R26   R(11,45)                1.1041         estimate D2E/DX2                !
 ! R27   R(11,46)                1.0924         estimate D2E/DX2                !
 ! R28   R(12,47)                1.1333         estimate D2E/DX2                !
 ! R29   R(12,48)                1.1239         estimate D2E/DX2                !
 ! R30   R(12,49)                1.1096         estimate D2E/DX2                !
 ! R31   R(13,50)                1.1007         estimate D2E/DX2                !
 ! R32   R(13,51)                1.1232         estimate D2E/DX2                !
 ! R33   R(13,52)                1.119          estimate D2E/DX2                !
 ! R34   R(14,15)                1.4055         estimate D2E/DX2                !
 ! R35   R(14,21)                1.3909         estimate D2E/DX2                !
 ! R36   R(15,16)                1.4076         estimate D2E/DX2                !
 ! R37   R(15,53)                1.0812         estimate D2E/DX2                !
 ! R38   R(16,17)                1.9027         estimate D2E/DX2                !
 ! R39   R(16,18)                1.3928         estimate D2E/DX2                !
 ! R40   R(18,19)                1.3764         estimate D2E/DX2                !
 ! R41   R(18,54)                1.0792         estimate D2E/DX2                !
 ! R42   R(19,20)                1.9284         estimate D2E/DX2                !
 ! R43   R(19,21)                1.4087         estimate D2E/DX2                !
 ! R44   R(21,55)                1.1007         estimate D2E/DX2                !
 ! R45   R(22,23)                1.4915         estimate D2E/DX2                !
 ! R46   R(23,24)                1.4206         estimate D2E/DX2                !
 ! R47   R(23,31)                1.43           estimate D2E/DX2                !
 ! R48   R(24,25)                1.4334         estimate D2E/DX2                !
 ! R49   R(24,27)                1.377          estimate D2E/DX2                !
 ! R50   R(25,26)                1.3498         estimate D2E/DX2                !
 ! R51   R(25,56)                1.1137         estimate D2E/DX2                !
 ! R52   R(26,57)                1.0798         estimate D2E/DX2                !
 ! R53   R(27,28)                1.4075         estimate D2E/DX2                !
 ! R54   R(27,58)                1.1018         estimate D2E/DX2                !
 ! R55   R(28,29)                1.3979         estimate D2E/DX2                !
 ! R56   R(28,59)                1.0763         estimate D2E/DX2                !
 ! R57   R(29,30)                1.5088         estimate D2E/DX2                !
 ! R58   R(29,31)                1.4011         estimate D2E/DX2                !
 ! R59   R(30,60)                1.1163         estimate D2E/DX2                !
 ! R60   R(30,61)                1.122          estimate D2E/DX2                !
 ! R61   R(30,62)                1.1125         estimate D2E/DX2                !
 ! R62   R(31,32)                1.4519         estimate D2E/DX2                !
 ! R63   R(32,33)                1.3354         estimate D2E/DX2                !
 ! R64   R(32,36)                1.3247         estimate D2E/DX2                !
 ! R65   R(33,34)                1.3837         estimate D2E/DX2                !
 ! R66   R(33,63)                1.0783         estimate D2E/DX2                !
 ! R67   R(34,35)                1.3844         estimate D2E/DX2                !
 ! R68   R(34,64)                1.0687         estimate D2E/DX2                !
 ! R69   R(35,36)                1.3682         estimate D2E/DX2                !
 ! R70   R(35,65)                1.0827         estimate D2E/DX2                !
 ! A1    A(2,1,26)             123.1409         estimate D2E/DX2                !
 ! A2    A(2,1,37)             117.6013         estimate D2E/DX2                !
 ! A3    A(26,1,37)            118.9486         estimate D2E/DX2                !
 ! A4    A(1,2,3)              123.3446         estimate D2E/DX2                !
 ! A5    A(1,2,38)             116.3769         estimate D2E/DX2                !
 ! A6    A(3,2,38)             119.4685         estimate D2E/DX2                !
 ! A7    A(2,3,4)              116.7191         estimate D2E/DX2                !
 ! A8    A(2,3,22)             121.7921         estimate D2E/DX2                !
 ! A9    A(4,3,22)             121.4503         estimate D2E/DX2                !
 ! A10   A(3,4,5)              120.4836         estimate D2E/DX2                !
 ! A11   A(3,4,39)             120.3671         estimate D2E/DX2                !
 ! A12   A(5,4,39)             119.1491         estimate D2E/DX2                !
 ! A13   A(4,5,6)              119.1609         estimate D2E/DX2                !
 ! A14   A(4,5,40)             119.8967         estimate D2E/DX2                !
 ! A15   A(6,5,40)             120.8389         estimate D2E/DX2                !
 ! A16   A(5,6,7)              121.1865         estimate D2E/DX2                !
 ! A17   A(5,6,41)             117.5656         estimate D2E/DX2                !
 ! A18   A(7,6,41)             121.2445         estimate D2E/DX2                !
 ! A19   A(6,7,8)              117.7102         estimate D2E/DX2                !
 ! A20   A(6,7,22)             120.1636         estimate D2E/DX2                !
 ! A21   A(8,7,22)             122.086          estimate D2E/DX2                !
 ! A22   A(7,8,9)              120.1611         estimate D2E/DX2                !
 ! A23   A(7,8,14)             119.3714         estimate D2E/DX2                !
 ! A24   A(7,8,66)              81.2039         estimate D2E/DX2                !
 ! A25   A(9,8,14)             120.0794         estimate D2E/DX2                !
 ! A26   A(9,8,66)              88.2358         estimate D2E/DX2                !
 ! A27   A(14,8,66)             94.3804         estimate D2E/DX2                !
 ! A28   A(8,9,10)             116.6294         estimate D2E/DX2                !
 ! A29   A(8,9,42)             106.4977         estimate D2E/DX2                !
 ! A30   A(8,9,43)             107.303          estimate D2E/DX2                !
 ! A31   A(10,9,42)            109.7006         estimate D2E/DX2                !
 ! A32   A(10,9,43)            108.9433         estimate D2E/DX2                !
 ! A33   A(42,9,43)            107.3798         estimate D2E/DX2                !
 ! A34   A(9,10,11)            111.5794         estimate D2E/DX2                !
 ! A35   A(9,10,12)            107.3367         estimate D2E/DX2                !
 ! A36   A(9,10,13)            111.395          estimate D2E/DX2                !
 ! A37   A(11,10,12)           109.8923         estimate D2E/DX2                !
 ! A38   A(11,10,13)           108.7965         estimate D2E/DX2                !
 ! A39   A(12,10,13)           107.7584         estimate D2E/DX2                !
 ! A40   A(10,11,44)           110.6999         estimate D2E/DX2                !
 ! A41   A(10,11,45)           110.695          estimate D2E/DX2                !
 ! A42   A(10,11,46)           113.3006         estimate D2E/DX2                !
 ! A43   A(44,11,45)           106.5315         estimate D2E/DX2                !
 ! A44   A(44,11,46)           107.7349         estimate D2E/DX2                !
 ! A45   A(45,11,46)           107.5833         estimate D2E/DX2                !
 ! A46   A(10,12,47)           110.0844         estimate D2E/DX2                !
 ! A47   A(10,12,48)           110.6816         estimate D2E/DX2                !
 ! A48   A(10,12,49)           111.8863         estimate D2E/DX2                !
 ! A49   A(47,12,48)           105.5801         estimate D2E/DX2                !
 ! A50   A(47,12,49)           108.6076         estimate D2E/DX2                !
 ! A51   A(48,12,49)           109.7884         estimate D2E/DX2                !
 ! A52   A(10,13,50)           112.2725         estimate D2E/DX2                !
 ! A53   A(10,13,51)           111.8967         estimate D2E/DX2                !
 ! A54   A(10,13,52)           112.1067         estimate D2E/DX2                !
 ! A55   A(50,13,51)           107.3023         estimate D2E/DX2                !
 ! A56   A(50,13,52)           105.4264         estimate D2E/DX2                !
 ! A57   A(51,13,52)           107.451          estimate D2E/DX2                !
 ! A58   A(8,14,15)            119.5745         estimate D2E/DX2                !
 ! A59   A(8,14,21)            119.8671         estimate D2E/DX2                !
 ! A60   A(15,14,21)           120.5417         estimate D2E/DX2                !
 ! A61   A(14,15,16)           118.4545         estimate D2E/DX2                !
 ! A62   A(14,15,53)           121.851          estimate D2E/DX2                !
 ! A63   A(16,15,53)           119.6914         estimate D2E/DX2                !
 ! A64   A(15,16,17)           118.4511         estimate D2E/DX2                !
 ! A65   A(15,16,18)           120.9567         estimate D2E/DX2                !
 ! A66   A(17,16,18)           120.5916         estimate D2E/DX2                !
 ! A67   A(16,18,19)           119.941          estimate D2E/DX2                !
 ! A68   A(16,18,54)           119.9973         estimate D2E/DX2                !
 ! A69   A(19,18,54)           120.0549         estimate D2E/DX2                !
 ! A70   A(18,19,20)           119.9693         estimate D2E/DX2                !
 ! A71   A(18,19,21)           120.3334         estimate D2E/DX2                !
 ! A72   A(20,19,21)           119.6661         estimate D2E/DX2                !
 ! A73   A(14,21,19)           119.7323         estimate D2E/DX2                !
 ! A74   A(14,21,55)           121.2358         estimate D2E/DX2                !
 ! A75   A(19,21,55)           118.9917         estimate D2E/DX2                !
 ! A76   A(3,22,7)             117.4807         estimate D2E/DX2                !
 ! A77   A(3,22,23)            120.5093         estimate D2E/DX2                !
 ! A78   A(7,22,23)            121.6203         estimate D2E/DX2                !
 ! A79   A(22,23,24)           119.1714         estimate D2E/DX2                !
 ! A80   A(22,23,31)           120.552          estimate D2E/DX2                !
 ! A81   A(24,23,31)           120.1607         estimate D2E/DX2                !
 ! A82   A(23,24,25)           122.5979         estimate D2E/DX2                !
 ! A83   A(23,24,27)           118.3894         estimate D2E/DX2                !
 ! A84   A(25,24,27)           118.9568         estimate D2E/DX2                !
 ! A85   A(24,25,26)           124.2087         estimate D2E/DX2                !
 ! A86   A(24,25,56)           119.7262         estimate D2E/DX2                !
 ! A87   A(26,25,56)           115.4434         estimate D2E/DX2                !
 ! A88   A(1,26,25)            123.0186         estimate D2E/DX2                !
 ! A89   A(1,26,57)            116.4146         estimate D2E/DX2                !
 ! A90   A(25,26,57)           119.9072         estimate D2E/DX2                !
 ! A91   A(24,27,28)           122.6981         estimate D2E/DX2                !
 ! A92   A(24,27,58)           120.0142         estimate D2E/DX2                !
 ! A93   A(28,27,58)           117.2877         estimate D2E/DX2                !
 ! A94   A(27,28,29)           118.4928         estimate D2E/DX2                !
 ! A95   A(27,28,59)           119.7809         estimate D2E/DX2                !
 ! A96   A(29,28,59)           121.689          estimate D2E/DX2                !
 ! A97   A(28,29,30)           118.1842         estimate D2E/DX2                !
 ! A98   A(28,29,31)           121.169          estimate D2E/DX2                !
 ! A99   A(30,29,31)           120.5573         estimate D2E/DX2                !
 ! A100  A(29,30,60)           108.7898         estimate D2E/DX2                !
 ! A101  A(29,30,61)           110.8107         estimate D2E/DX2                !
 ! A102  A(29,30,62)           110.9714         estimate D2E/DX2                !
 ! A103  A(60,30,61)           110.0895         estimate D2E/DX2                !
 ! A104  A(60,30,62)           108.5162         estimate D2E/DX2                !
 ! A105  A(61,30,62)           107.6329         estimate D2E/DX2                !
 ! A106  A(23,31,29)           118.7903         estimate D2E/DX2                !
 ! A107  A(23,31,32)           120.3095         estimate D2E/DX2                !
 ! A108  A(29,31,32)           120.9002         estimate D2E/DX2                !
 ! A109  A(31,32,33)           126.3359         estimate D2E/DX2                !
 ! A110  A(31,32,36)           122.367          estimate D2E/DX2                !
 ! A111  A(33,32,36)           111.2865         estimate D2E/DX2                !
 ! A112  A(32,33,34)           108.7457         estimate D2E/DX2                !
 ! A113  A(32,33,63)           125.9745         estimate D2E/DX2                !
 ! A114  A(34,33,63)           125.27           estimate D2E/DX2                !
 ! A115  A(33,34,35)           103.8255         estimate D2E/DX2                !
 ! A116  A(33,34,64)           127.4928         estimate D2E/DX2                !
 ! A117  A(35,34,64)           128.6773         estimate D2E/DX2                !
 ! A118  A(34,35,36)           110.5394         estimate D2E/DX2                !
 ! A119  A(34,35,65)           125.8497         estimate D2E/DX2                !
 ! A120  A(36,35,65)           123.6095         estimate D2E/DX2                !
 ! A121  A(32,36,35)           105.6028         estimate D2E/DX2                !
 ! D1    D(26,1,2,3)             2.1357         estimate D2E/DX2                !
 ! D2    D(26,1,2,38)          171.7516         estimate D2E/DX2                !
 ! D3    D(37,1,2,3)          -171.4014         estimate D2E/DX2                !
 ! D4    D(37,1,2,38)           -1.7855         estimate D2E/DX2                !
 ! D5    D(2,1,26,25)           64.982          estimate D2E/DX2                !
 ! D6    D(2,1,26,57)         -124.3531         estimate D2E/DX2                !
 ! D7    D(37,1,26,25)        -121.5636         estimate D2E/DX2                !
 ! D8    D(37,1,26,57)          49.1013         estimate D2E/DX2                !
 ! D9    D(1,2,3,4)            118.9878         estimate D2E/DX2                !
 ! D10   D(1,2,3,22)           -63.242          estimate D2E/DX2                !
 ! D11   D(38,2,3,4)           -50.3233         estimate D2E/DX2                !
 ! D12   D(38,2,3,22)          127.4469         estimate D2E/DX2                !
 ! D13   D(2,3,4,5)            178.6577         estimate D2E/DX2                !
 ! D14   D(2,3,4,39)            -1.5124         estimate D2E/DX2                !
 ! D15   D(22,3,4,5)             0.8793         estimate D2E/DX2                !
 ! D16   D(22,3,4,39)         -179.2908         estimate D2E/DX2                !
 ! D17   D(2,3,22,7)           179.5356         estimate D2E/DX2                !
 ! D18   D(2,3,22,23)           -7.5148         estimate D2E/DX2                !
 ! D19   D(4,3,22,7)            -2.7991         estimate D2E/DX2                !
 ! D20   D(4,3,22,23)          170.1505         estimate D2E/DX2                !
 ! D21   D(3,4,5,6)              1.4422         estimate D2E/DX2                !
 ! D22   D(3,4,5,40)           177.775          estimate D2E/DX2                !
 ! D23   D(39,4,5,6)          -178.3898         estimate D2E/DX2                !
 ! D24   D(39,4,5,40)           -2.057          estimate D2E/DX2                !
 ! D25   D(4,5,6,7)             -1.7292         estimate D2E/DX2                !
 ! D26   D(4,5,6,41)           177.6001         estimate D2E/DX2                !
 ! D27   D(40,5,6,7)          -178.0265         estimate D2E/DX2                !
 ! D28   D(40,5,6,41)            1.3028         estimate D2E/DX2                !
 ! D29   D(5,6,7,8)           -178.0048         estimate D2E/DX2                !
 ! D30   D(5,6,7,22)            -0.2606         estimate D2E/DX2                !
 ! D31   D(41,6,7,8)             2.6907         estimate D2E/DX2                !
 ! D32   D(41,6,7,22)         -179.5651         estimate D2E/DX2                !
 ! D33   D(6,7,8,9)             42.5143         estimate D2E/DX2                !
 ! D34   D(6,7,8,14)          -144.6297         estimate D2E/DX2                !
 ! D35   D(6,7,8,66)           125.2788         estimate D2E/DX2                !
 ! D36   D(22,7,8,9)          -135.1837         estimate D2E/DX2                !
 ! D37   D(22,7,8,14)           37.6723         estimate D2E/DX2                !
 ! D38   D(22,7,8,66)          -52.4192         estimate D2E/DX2                !
 ! D39   D(6,7,22,3)             2.4904         estimate D2E/DX2                !
 ! D40   D(6,7,22,23)         -170.3759         estimate D2E/DX2                !
 ! D41   D(8,7,22,3)          -179.8668         estimate D2E/DX2                !
 ! D42   D(8,7,22,23)            7.2669         estimate D2E/DX2                !
 ! D43   D(7,8,9,10)          -118.3675         estimate D2E/DX2                !
 ! D44   D(7,8,9,42)           118.8264         estimate D2E/DX2                !
 ! D45   D(7,8,9,43)             4.0827         estimate D2E/DX2                !
 ! D46   D(14,8,9,10)           68.8274         estimate D2E/DX2                !
 ! D47   D(14,8,9,42)          -53.9788         estimate D2E/DX2                !
 ! D48   D(14,8,9,43)         -168.7224         estimate D2E/DX2                !
 ! D49   D(66,8,9,10)          162.8682         estimate D2E/DX2                !
 ! D50   D(66,8,9,42)           40.062          estimate D2E/DX2                !
 ! D51   D(66,8,9,43)          -74.6816         estimate D2E/DX2                !
 ! D52   D(7,8,14,15)         -129.729          estimate D2E/DX2                !
 ! D53   D(7,8,14,21)           48.7969         estimate D2E/DX2                !
 ! D54   D(9,8,14,15)           43.133          estimate D2E/DX2                !
 ! D55   D(9,8,14,21)         -138.3412         estimate D2E/DX2                !
 ! D56   D(66,8,14,15)         -47.3647         estimate D2E/DX2                !
 ! D57   D(66,8,14,21)         131.1611         estimate D2E/DX2                !
 ! D58   D(8,9,10,11)           58.6227         estimate D2E/DX2                !
 ! D59   D(8,9,10,12)          179.0722         estimate D2E/DX2                !
 ! D60   D(8,9,10,13)          -63.1869         estimate D2E/DX2                !
 ! D61   D(42,9,10,11)         179.7512         estimate D2E/DX2                !
 ! D62   D(42,9,10,12)         -59.7993         estimate D2E/DX2                !
 ! D63   D(42,9,10,13)          57.9416         estimate D2E/DX2                !
 ! D64   D(43,9,10,11)         -62.9689         estimate D2E/DX2                !
 ! D65   D(43,9,10,12)          57.4806         estimate D2E/DX2                !
 ! D66   D(43,9,10,13)         175.2214         estimate D2E/DX2                !
 ! D67   D(9,10,11,44)          61.4068         estimate D2E/DX2                !
 ! D68   D(9,10,11,45)         179.3053         estimate D2E/DX2                !
 ! D69   D(9,10,11,46)         -59.7438         estimate D2E/DX2                !
 ! D70   D(12,10,11,44)        -57.5331         estimate D2E/DX2                !
 ! D71   D(12,10,11,45)         60.3655         estimate D2E/DX2                !
 ! D72   D(12,10,11,46)       -178.6837         estimate D2E/DX2                !
 ! D73   D(13,10,11,44)       -175.2942         estimate D2E/DX2                !
 ! D74   D(13,10,11,45)        -57.3957         estimate D2E/DX2                !
 ! D75   D(13,10,11,46)         63.5552         estimate D2E/DX2                !
 ! D76   D(9,10,12,47)        -178.3303         estimate D2E/DX2                !
 ! D77   D(9,10,12,48)         -61.9898         estimate D2E/DX2                !
 ! D78   D(9,10,12,49)          60.8045         estimate D2E/DX2                !
 ! D79   D(11,10,12,47)        -56.817          estimate D2E/DX2                !
 ! D80   D(11,10,12,48)         59.5235         estimate D2E/DX2                !
 ! D81   D(11,10,12,49)       -177.6822         estimate D2E/DX2                !
 ! D82   D(13,10,12,47)         61.5868         estimate D2E/DX2                !
 ! D83   D(13,10,12,48)        177.9273         estimate D2E/DX2                !
 ! D84   D(13,10,12,49)        -59.2784         estimate D2E/DX2                !
 ! D85   D(9,10,13,50)        -171.1078         estimate D2E/DX2                !
 ! D86   D(9,10,13,51)         -50.3775         estimate D2E/DX2                !
 ! D87   D(9,10,13,52)          70.4273         estimate D2E/DX2                !
 ! D88   D(11,10,13,50)         65.4829         estimate D2E/DX2                !
 ! D89   D(11,10,13,51)       -173.7868         estimate D2E/DX2                !
 ! D90   D(11,10,13,52)        -52.9819         estimate D2E/DX2                !
 ! D91   D(12,10,13,50)        -53.6219         estimate D2E/DX2                !
 ! D92   D(12,10,13,51)         67.1084         estimate D2E/DX2                !
 ! D93   D(12,10,13,52)       -172.0868         estimate D2E/DX2                !
 ! D94   D(8,14,15,16)         178.1932         estimate D2E/DX2                !
 ! D95   D(8,14,15,53)          -1.1637         estimate D2E/DX2                !
 ! D96   D(21,14,15,16)         -0.3225         estimate D2E/DX2                !
 ! D97   D(21,14,15,53)       -179.6794         estimate D2E/DX2                !
 ! D98   D(8,14,21,19)        -179.8278         estimate D2E/DX2                !
 ! D99   D(8,14,21,55)           2.5013         estimate D2E/DX2                !
 ! D100  D(15,14,21,19)         -1.3164         estimate D2E/DX2                !
 ! D101  D(15,14,21,55)       -178.9873         estimate D2E/DX2                !
 ! D102  D(14,15,16,17)       -178.8145         estimate D2E/DX2                !
 ! D103  D(14,15,16,18)          0.9306         estimate D2E/DX2                !
 ! D104  D(53,15,16,17)          0.5567         estimate D2E/DX2                !
 ! D105  D(53,15,16,18)       -179.6982         estimate D2E/DX2                !
 ! D106  D(15,16,18,19)          0.1344         estimate D2E/DX2                !
 ! D107  D(15,16,18,54)        179.1908         estimate D2E/DX2                !
 ! D108  D(17,16,18,19)        179.874          estimate D2E/DX2                !
 ! D109  D(17,16,18,54)         -1.0696         estimate D2E/DX2                !
 ! D110  D(16,18,19,20)       -179.7686         estimate D2E/DX2                !
 ! D111  D(16,18,19,21)         -1.8079         estimate D2E/DX2                !
 ! D112  D(54,18,19,20)          1.1756         estimate D2E/DX2                !
 ! D113  D(54,18,19,21)        179.1363         estimate D2E/DX2                !
 ! D114  D(18,19,21,14)          2.4036         estimate D2E/DX2                !
 ! D115  D(18,19,21,55)       -179.8731         estimate D2E/DX2                !
 ! D116  D(20,19,21,14)       -179.6295         estimate D2E/DX2                !
 ! D117  D(20,19,21,55)         -1.9062         estimate D2E/DX2                !
 ! D118  D(3,22,23,24)          74.5105         estimate D2E/DX2                !
 ! D119  D(3,22,23,31)        -109.3977         estimate D2E/DX2                !
 ! D120  D(7,22,23,24)        -112.8364         estimate D2E/DX2                !
 ! D121  D(7,22,23,31)          63.2554         estimate D2E/DX2                !
 ! D122  D(22,23,24,25)         -6.7628         estimate D2E/DX2                !
 ! D123  D(22,23,24,27)        170.4859         estimate D2E/DX2                !
 ! D124  D(31,23,24,25)        177.1297         estimate D2E/DX2                !
 ! D125  D(31,23,24,27)         -5.6216         estimate D2E/DX2                !
 ! D126  D(22,23,31,29)       -172.6837         estimate D2E/DX2                !
 ! D127  D(22,23,31,32)          7.2584         estimate D2E/DX2                !
 ! D128  D(24,23,31,29)          3.3694         estimate D2E/DX2                !
 ! D129  D(24,23,31,32)       -176.6884         estimate D2E/DX2                !
 ! D130  D(23,24,25,26)        -62.7255         estimate D2E/DX2                !
 ! D131  D(23,24,25,56)        126.7365         estimate D2E/DX2                !
 ! D132  D(27,24,25,26)        120.0407         estimate D2E/DX2                !
 ! D133  D(27,24,25,56)        -50.4973         estimate D2E/DX2                !
 ! D134  D(23,24,27,28)          2.8737         estimate D2E/DX2                !
 ! D135  D(23,24,27,58)       -177.1922         estimate D2E/DX2                !
 ! D136  D(25,24,27,28)       -179.7753         estimate D2E/DX2                !
 ! D137  D(25,24,27,58)          0.1588         estimate D2E/DX2                !
 ! D138  D(24,25,26,1)           0.7819         estimate D2E/DX2                !
 ! D139  D(24,25,26,57)       -169.5703         estimate D2E/DX2                !
 ! D140  D(56,25,26,1)         171.6856         estimate D2E/DX2                !
 ! D141  D(56,25,26,57)          1.3334         estimate D2E/DX2                !
 ! D142  D(24,27,28,29)          2.1486         estimate D2E/DX2                !
 ! D143  D(24,27,28,59)        179.9634         estimate D2E/DX2                !
 ! D144  D(58,27,28,29)       -177.7872         estimate D2E/DX2                !
 ! D145  D(58,27,28,59)          0.0275         estimate D2E/DX2                !
 ! D146  D(27,28,29,30)        178.9203         estimate D2E/DX2                !
 ! D147  D(27,28,29,31)         -4.5024         estimate D2E/DX2                !
 ! D148  D(59,28,29,30)          1.1493         estimate D2E/DX2                !
 ! D149  D(59,28,29,31)        177.7266         estimate D2E/DX2                !
 ! D150  D(28,29,30,60)         99.815          estimate D2E/DX2                !
 ! D151  D(28,29,30,61)       -139.023          estimate D2E/DX2                !
 ! D152  D(28,29,30,62)        -19.5029         estimate D2E/DX2                !
 ! D153  D(31,29,30,60)        -76.7841         estimate D2E/DX2                !
 ! D154  D(31,29,30,61)         44.378          estimate D2E/DX2                !
 ! D155  D(31,29,30,62)        163.898          estimate D2E/DX2                !
 ! D156  D(28,29,31,23)          1.7713         estimate D2E/DX2                !
 ! D157  D(28,29,31,32)       -178.1705         estimate D2E/DX2                !
 ! D158  D(30,29,31,23)        178.2677         estimate D2E/DX2                !
 ! D159  D(30,29,31,32)         -1.6741         estimate D2E/DX2                !
 ! D160  D(23,31,32,33)         52.8778         estimate D2E/DX2                !
 ! D161  D(23,31,32,36)       -125.8274         estimate D2E/DX2                !
 ! D162  D(29,31,32,33)       -127.1813         estimate D2E/DX2                !
 ! D163  D(29,31,32,36)         54.1135         estimate D2E/DX2                !
 ! D164  D(31,32,33,34)       -178.9166         estimate D2E/DX2                !
 ! D165  D(31,32,33,63)          2.1787         estimate D2E/DX2                !
 ! D166  D(36,32,33,34)         -0.0903         estimate D2E/DX2                !
 ! D167  D(36,32,33,63)       -178.995          estimate D2E/DX2                !
 ! D168  D(31,32,36,35)        178.9415         estimate D2E/DX2                !
 ! D169  D(33,32,36,35)          0.0609         estimate D2E/DX2                !
 ! D170  D(32,33,34,35)          0.0784         estimate D2E/DX2                !
 ! D171  D(32,33,34,64)       -179.204          estimate D2E/DX2                !
 ! D172  D(63,33,34,35)        178.9928         estimate D2E/DX2                !
 ! D173  D(63,33,34,64)         -0.2897         estimate D2E/DX2                !
 ! D174  D(33,34,35,36)         -0.0426         estimate D2E/DX2                !
 ! D175  D(33,34,35,65)        179.5473         estimate D2E/DX2                !
 ! D176  D(64,34,35,36)        179.2281         estimate D2E/DX2                !
 ! D177  D(64,34,35,65)         -1.182          estimate D2E/DX2                !
 ! D178  D(34,35,36,32)         -0.009          estimate D2E/DX2                !
 ! D179  D(65,35,36,32)       -179.6098         estimate D2E/DX2                !
 --------------------------------------------------------------------------------
 Trust Radius=3.00D-01 FncErr=1.00D-07 GrdErr=1.00D-06 EigMax=2.50D+02 EigMin=1.00D-04
 Number of steps in this run=    380 maximum allowed number of steps=    396.
 GradGradGradGradGradGradGradGradGradGradGradGradGradGradGradGradGradGrad

 Leave Link  103 at Fri Jan 24 16:51:55 2025, MaxMem=  3221225472 cpu:               2.5 elap:               0.1
 (Enter /software/gaussian/G16-C.01/avx2/g16/l202.exe)
 Stoichiometry    C31H30BBr2N2(1-)
 Framework group  C1[X(C31H30BBr2N2)]
 Deg. of freedom   192
 Full point group                 C1      NOp   1
 Largest Abelian subgroup         C1      NOp   1
 Largest concise Abelian subgroup C1      NOp   1
                         Standard orientation:                         
 ---------------------------------------------------------------------
 Center     Atomic      Atomic             Coordinates (Angstroms)
 Number     Number       Type             X           Y           Z
 ---------------------------------------------------------------------
      1          6           0        2.349033    4.235184    0.686809
      2          6           0        3.260327    3.245060    0.601796
      3          6           0        3.132463    2.101555   -0.323575
      4          6           0        4.146587    1.951179   -1.287399
      5          6           0        4.118764    0.884384   -2.181167
      6          6           0        3.060548   -0.014254   -2.129898
      7          6           0        2.044438    0.115173   -1.173861
      8          5           0        0.878128   -1.006901   -1.158542
      9          6           0        1.252208   -2.568943   -1.332252
     10          6           0        0.649565   -3.302505   -2.584545
     11          6           0        1.077142   -2.632240   -3.887325
     12          6           0        1.156144   -4.756548   -2.552480
     13          6           0       -0.876739   -3.339443   -2.527790
     14          6           0       -0.611188   -0.578957   -0.801742
     15          6           0       -1.324540   -1.297018    0.173408
     16          6           0       -2.627233   -0.874221    0.498431
     17         35           0       -3.579992   -1.825455    1.842959
     18          6           0       -3.207011    0.217777   -0.142949
     19          6           0       -2.504692    0.897807   -1.111813
     20         35           0       -3.304094    2.413944   -1.995638
     21          6           0       -1.186384    0.519003   -1.432722
     22          6           0        2.084535    1.185360   -0.220003
     23          6           0        1.145685    1.236478    0.937842
     24          6           0        0.165127    2.263104    0.989412
     25          6           0        0.125690    3.341388    0.045865
     26          6           0        1.107319    4.255832   -0.102952
     27          6           0       -0.816034    2.183536    1.952214
     28          6           0       -0.850996    1.161749    2.919533
     29          6           0        0.178058    0.215606    2.927633
     30          6           0        0.146906   -0.862135    3.983091
     31          6           0        1.173840    0.218770    1.941962
     32          7           0        2.217575   -0.790449    1.933288
     33          6           0        3.533570   -0.567388    1.892955
     34          6           0        4.190623   -1.785035    1.874152
     35          6           0        3.165302   -2.714722    1.904493
     36          7           0        1.949715   -2.087741    1.940807
     37          1           0        2.600416    5.096723    1.288883
     38          1           0        4.190351    3.404364    1.122349
     39          1           0        4.957991    2.666569   -1.344773
     40          1           0        4.861816    0.800286   -2.919941
     41          1           0        3.043989   -0.817566   -2.868298
     42          1           0        0.924710   -3.068903   -0.420670
     43          1           0        2.362242   -2.641232   -1.370664
     44          1           0        2.212221   -2.664886   -4.004296
     45          1           0        0.656173   -3.166141   -4.757283
     46          1           0        0.765174   -1.587718   -3.958549
     47          1           0        0.772236   -5.322454   -3.456257
     48          1           0        2.276890   -4.788219   -2.630190
     49          1           0        0.827958   -5.288771   -1.635831
     50          1           0       -1.307903   -3.981542   -3.310932
     51          1           0       -1.250044   -3.721311   -1.539669
     52          1           0       -1.328741   -2.328626   -2.689363
     53          1           0       -0.896219   -2.150394    0.680737
     54          1           0       -4.211694    0.520582    0.109109
     55          1           0       -0.644368    1.079521   -2.209680
     56          1           0       -0.816073    3.555829   -0.508642
     57          1           0        0.938733    5.132707   -0.710153
     58          1           0       -1.616390    2.939963    1.987324
     59          1           0       -1.640027    1.145193    3.651344
     60          1           0       -0.262528   -1.796844    3.530556
     61          1           0        1.174949   -1.049926    4.391544
     62          1           0       -0.505282   -0.566781    4.834630
     63          1           0        4.012604    0.398655    1.894074
     64          1           0        5.245552   -1.954658    1.853955
     65          1           0        3.284549   -3.790784    1.894447
     66          1           0        1.197729   -1.082139   -0.108688
 ---------------------------------------------------------------------
 Rotational constants (GHZ):           0.0984068           0.0813132           0.0720072
 Leave Link  202 at Fri Jan 24 16:51:56 2025, MaxMem=  3221225472 cpu:               0.3 elap:               0.0
 (Enter /software/gaussian/G16-C.01/avx2/g16/l301.exe)
 Standard basis: def2SVP (5D, 7F)
 Ernie: Thresh=  0.10000D-02 Tol=  0.10000D-05 Strict=F.
 There are   730 symmetry adapted cartesian basis functions of A   symmetry.
 There are   690 symmetry adapted basis functions of A   symmetry.
   690 basis functions,  1220 primitive gaussians,   730 cartesian basis functions
   153 alpha electrons      153 beta electrons
       nuclear repulsion energy      5305.3946775928 Hartrees.
 IExCor= 1009 DFT=T Ex+Corr=PBE1PBE ExCW=0 ScaHFX=  0.250000
 ScaDFX=  0.750000  0.750000  1.000000  1.000000 ScalE2=  1.000000  1.000000
 IRadAn=      5 IRanWt=     -1 IRanGd=            0 ICorTp=0 IEmpDi=141
 NAtoms=   66 NActive=   66 NUniq=   66 SFac= 1.00D+00 NAtFMM=   60 NAOKFM=T Big=T
 Integral buffers will be    131072 words long.
 Raffenetti 2 integral format.
 Two-electron integral symmetry is turned on.
 R6Disp:  Grimme-D3(BJ) Dispersion energy=       -0.1105165338 Hartrees.
 Nuclear repulsion after empirical dispersion term =     5305.2841610589 Hartrees.
 Leave Link  301 at Fri Jan 24 16:51:57 2025, MaxMem=  3221225472 cpu:               2.4 elap:               0.1
 (Enter /software/gaussian/G16-C.01/avx2/g16/l302.exe)
 NPDir=0 NMtPBC=     1 NCelOv=     1 NCel=       1 NClECP=     1 NCelD=      1
         NCelK=      1 NCelE2=     1 NClLst=     1 CellRange=     0.0.
 One-electron integrals computed using PRISM.
 One-electron integral symmetry used in STVInt
   1 Symmetry operations used in ECPInt.
 ECPInt:  NShTT=   50721 NPrTT=  191883 LenC2=   44966 LenP2D=  111035.
 LDataN:  DoStor=T MaxTD1= 4 Len=   56
 NBasis=   690 RedAO= T EigKep=  1.38D-04  NBF=   690
 NBsUse=   690 1.00D-06 EigRej= -1.00D+00 NBFU=   690
 Precomputing XC quadrature grid using
 IXCGrd= 4 IRadAn=           5 IRanWt=          -1 IRanGd=           0 AccXCQ= 0.00D+00.
 Generated NRdTot=       0 NPtTot=           0 NUsed=           0 NTot=          32
 NSgBfM=   707   705   705   705   707 MxSgAt=    66 MxSgA2=    66.
 Leave Link  302 at Fri Jan 24 16:51:59 2025, MaxMem=  3221225472 cpu:              46.1 elap:               2.0
 (Enter /software/gaussian/G16-C.01/avx2/g16/l303.exe)
 DipDrv:  MaxL=1.
 Leave Link  303 at Fri Jan 24 16:52:01 2025, MaxMem=  3221225472 cpu:              15.3 elap:               0.7
 (Enter /software/gaussian/G16-C.01/avx2/g16/l401.exe)
 ExpMin= 8.36D-02 ExpMax= 1.13D+05 ExpMxC= 1.70D+04 IAcc=3 IRadAn=         5 AccDes= 0.00D+00
 Harris functional with IExCor= 1009 and IRadAn=       5 diagonalized for initial guess.
 HarFok:  IExCor= 1009 AccDes= 0.00D+00 IRadAn=         5 IDoV= 1 UseB2=F ITyADJ=14
 ICtDFT=  3500011 ScaDFX=  1.000000  1.000000  1.000000  1.000000
 FoFCou: FMM=F IPFlag=           0 FMFlag=      100000 FMFlg1=        2001
         NFxFlg=           0 DoJE=T BraDBF=F KetDBF=T FulRan=T
         wScrn=  0.000000 ICntrl=       500 IOpCl=  0 I1Cent=   200000004 NGrid=           0
         NMat0=    1 NMatS0=      1 NMatT0=    0 NMatD0=    1 NMtDS0=    0 NMtDT0=    0
 Petite list used in FoFCou.
 Harris En= -6478.70767451483    
 JPrj=0 DoOrth=F DoCkMO=F.
 Leave Link  401 at Fri Jan 24 16:52:07 2025, MaxMem=  3221225472 cpu:             139.5 elap:               5.9
 (Enter /software/gaussian/G16-C.01/avx2/g16/l502.exe)
 Integral symmetry usage will be decided dynamically.
 Closed shell SCF:
 Using DIIS extrapolation, IDIIS=  1040.
 NGot=  3221225472 LenX=  3220133034 LenY=  3219599404
 Requested convergence on RMS density matrix=1.00D-08 within 128 cycles.
 Requested convergence on MAX density matrix=1.00D-06.
 Requested convergence on             energy=1.00D-06.
 No special actions if energy rises.
 Fock matrices will be formed incrementally for  20 cycles.
 Integral accuracy reduced to 1.0D-05 until final iterations.

 Cycle   1  Pass 0  IDiag  1:
 FoFJK:  IHMeth= 1 ICntrl=       0 DoSepK=F KAlg= 0 I1Cent=           0 FoldK=F
 IRaf= 990000000 NMat=       1 IRICut=       1 DoRegI=T DoRafI=F ISym2E= 0 IDoP0=0 IntGTp=1.
 FoFCou: FMM=T IPFlag=           0 FMFlag=      100000 FMFlg1=        2001
         NFxFlg=           0 DoJE=F BraDBF=F KetDBF=F FulRan=T
         wScrn=  0.000000 ICntrl=         0 IOpCl=  0 I1Cent=           0 NGrid=           0
         NMat0=    1 NMatS0=      1 NMatT0=    0 NMatD0=    1 NMtDS0=    0 NMtDT0=    0
 Symmetry not used in FoFCou.
 FMM levels:  10  Number of levels for PrismC:   9
 E= -6477.42694312964    
 DIIS: error= 3.54D-02 at cycle   1 NSaved=   1.
 NSaved= 1 IEnMin= 1 EnMin= -6477.42694312964     IErMin= 1 ErrMin= 3.54D-02
 ErrMax= 3.54D-02  0.00D+00 EMaxC= 1.00D-01 BMatC= 9.62D-01 BMatP= 9.62D-01
 IDIUse=3 WtCom= 6.46D-01 WtEn= 3.54D-01
 Coeff-Com:  0.100D+01
 Coeff-En:   0.100D+01
 Coeff:      0.100D+01
 Gap=     0.147 Goal=   None    Shift=    0.000
 GapD=    0.147 DampG=1.000 DampE=0.500 DampFc=0.5000 IDamp=-1.
 Damping current iteration by 5.00D-01
 RMSDP=6.98D-03 MaxDP=3.35D-01              OVMax= 7.62D-01

 Cycle   2  Pass 0  IDiag  1:
 RMSU=  3.47D-03    CP:  9.75D-01
 E= -6477.41343196022     Delta-E=        0.013511169422 Rises=F Damp=T
 DIIS: error= 9.42D-03 at cycle   2 NSaved=   2.
 NSaved= 2 IEnMin= 1 EnMin= -6477.42694312964     IErMin= 2 ErrMin= 9.42D-03
 ErrMax= 9.42D-03  0.00D+00 EMaxC= 1.00D-01 BMatC= 1.82D-01 BMatP= 9.62D-01
 IDIUse=3 WtCom= 9.06D-01 WtEn= 9.42D-02
 Coeff-Com:  0.202D+00 0.798D+00
 Coeff-En:   0.507D+00 0.493D+00
 Coeff:      0.230D+00 0.770D+00
 Gap=    -0.070 Goal=   None    Shift=    0.000
 RMSDP=3.82D-03 MaxDP=1.89D-01 DE= 1.35D-02 OVMax= 3.96D-01

 Cycle   3  Pass 0  IDiag  1:
 RMSU=  2.72D-03    CP:  9.53D-01  2.33D-01
 E= -6477.84394493371     Delta-E=       -0.430512973488 Rises=F Damp=F
 DIIS: error= 1.76D-02 at cycle   3 NSaved=   3.
 NSaved= 3 IEnMin= 3 EnMin= -6477.84394493371     IErMin= 2 ErrMin= 9.42D-03
 ErrMax= 1.76D-02  0.00D+00 EMaxC= 1.00D-01 BMatC= 4.09D-01 BMatP= 1.82D-01
 IDIUse=2 WtCom= 0.00D+00 WtEn= 1.00D+00
 Coeff-En:   0.000D+00 0.297D+00 0.703D+00
 Coeff:      0.000D+00 0.297D+00 0.703D+00
 Gap=     0.299 Goal=   None    Shift=    0.000
 RMSDP=3.82D-03 MaxDP=1.82D-01 DE=-4.31D-01 OVMax= 5.16D-01

 Cycle   4  Pass 0  IDiag  1:
 RMSU=  2.87D-03    CP:  9.62D-01  5.32D-01  1.59D-01
 E= -6477.48099173310     Delta-E=        0.362953200602 Rises=F Damp=F
 DIIS: error= 2.65D-02 at cycle   4 NSaved=   4.
 NSaved= 4 IEnMin= 3 EnMin= -6477.84394493371     IErMin= 2 ErrMin= 9.42D-03
 ErrMax= 2.65D-02  0.00D+00 EMaxC= 1.00D-01 BMatC= 7.57D-01 BMatP= 1.82D-01
 IDIUse=2 WtCom= 0.00D+00 WtEn= 1.00D+00
 Coeff-En:   0.000D+00 0.000D+00 0.599D+00 0.401D+00
 Coeff:      0.000D+00 0.000D+00 0.599D+00 0.401D+00
 Gap=     0.106 Goal=   None    Shift=    0.000
 RMSDP=2.07D-03 MaxDP=1.29D-01 DE= 3.63D-01 OVMax= 3.86D-01

 Cycle   5  Pass 0  IDiag  1:
 RMSU=  1.02D-03    CP:  9.60D-01  3.86D-01  4.87D-01  4.87D-01
 E= -6478.31923001991     Delta-E=       -0.838238286808 Rises=F Damp=F
 DIIS: error= 4.00D-03 at cycle   5 NSaved=   5.
 NSaved= 5 IEnMin= 5 EnMin= -6478.31923001991     IErMin= 5 ErrMin= 4.00D-03
 ErrMax= 4.00D-03  0.00D+00 EMaxC= 1.00D-01 BMatC= 2.29D-02 BMatP= 1.82D-01
 IDIUse=3 WtCom= 9.60D-01 WtEn= 4.00D-02
 Coeff-Com:  0.302D-01 0.441D-01 0.242D+00 0.135D+00 0.549D+00
 Coeff-En:   0.000D+00 0.000D+00 0.000D+00 0.000D+00 0.100D+01
 Coeff:      0.290D-01 0.423D-01 0.232D+00 0.129D+00 0.567D+00
 Gap=     0.132 Goal=   None    Shift=    0.000
 RMSDP=6.43D-04 MaxDP=6.65D-02 DE=-8.38D-01 OVMax= 5.40D-02

 Cycle   6  Pass 0  IDiag  1:
 RMSU=  5.26D-04    CP:  9.56D-01  3.48D-01  5.29D-01  4.42D-01  7.13D-01
 E= -6478.33104674526     Delta-E=       -0.011816725353 Rises=F Damp=F
 DIIS: error= 3.21D-03 at cycle   6 NSaved=   6.
 NSaved= 6 IEnMin= 6 EnMin= -6478.33104674526     IErMin= 6 ErrMin= 3.21D-03
 ErrMax= 3.21D-03  0.00D+00 EMaxC= 1.00D-01 BMatC= 1.25D-02 BMatP= 2.29D-02
 IDIUse=3 WtCom= 9.68D-01 WtEn= 3.21D-02
 Coeff-Com:  0.888D-02-0.170D-01 0.206D-01-0.264D-02 0.453D+00 0.537D+00
 Coeff-En:   0.000D+00 0.000D+00 0.000D+00 0.000D+00 0.369D+00 0.631D+00
 Coeff:      0.859D-02-0.165D-01 0.200D-01-0.256D-02 0.451D+00 0.540D+00
 Gap=     0.129 Goal=   None    Shift=    0.000
 RMSDP=2.98D-04 MaxDP=3.05D-02 DE=-1.18D-02 OVMax= 2.56D-02

 Cycle   7  Pass 0  IDiag  1:
 RMSU=  1.22D-04    CP:  9.57D-01  3.56D-01  5.21D-01  4.45D-01  8.55D-01
                    CP:  5.71D-01
 E= -6478.34341617959     Delta-E=       -0.012369434326 Rises=F Damp=F
 DIIS: error= 6.05D-04 at cycle   7 NSaved=   7.
 NSaved= 7 IEnMin= 7 EnMin= -6478.34341617959     IErMin= 7 ErrMin= 6.05D-04
 ErrMax= 6.05D-04  0.00D+00 EMaxC= 1.00D-01 BMatC= 6.83D-04 BMatP= 1.25D-02
 IDIUse=3 WtCom= 9.94D-01 WtEn= 6.05D-03
 Coeff-Com:  0.306D-02-0.971D-02 0.236D-02-0.102D-01 0.229D+00 0.322D+00
 Coeff-Com:  0.463D+00
 Coeff-En:   0.000D+00 0.000D+00 0.000D+00 0.000D+00 0.000D+00 0.000D+00
 Coeff-En:   0.100D+01
 Coeff:      0.304D-02-0.965D-02 0.235D-02-0.101D-01 0.228D+00 0.320D+00
 Coeff:      0.467D+00
 Gap=     0.129 Goal=   None    Shift=    0.000
 RMSDP=5.91D-05 MaxDP=2.78D-03 DE=-1.24D-02 OVMax= 5.47D-03

 Cycle   8  Pass 0  IDiag  1:
 RMSU=  3.56D-05    CP:  9.57D-01  3.57D-01  5.22D-01  4.44D-01  8.57D-01
                    CP:  6.13D-01  6.64D-01
 E= -6478.34408588193     Delta-E=       -0.000669702340 Rises=F Damp=F
 DIIS: error= 1.09D-04 at cycle   8 NSaved=   8.
 NSaved= 8 IEnMin= 8 EnMin= -6478.34408588193     IErMin= 8 ErrMin= 1.09D-04
 ErrMax= 1.09D-04  0.00D+00 EMaxC= 1.00D-01 BMatC= 3.31D-05 BMatP= 6.83D-04
 IDIUse=3 WtCom= 9.99D-01 WtEn= 1.09D-03
 Coeff-Com:  0.807D-03-0.241D-02 0.217D-02-0.500D-02 0.700D-01 0.109D+00
 Coeff-Com:  0.219D+00 0.607D+00
 Coeff-En:   0.000D+00 0.000D+00 0.000D+00 0.000D+00 0.000D+00 0.000D+00
 Coeff-En:   0.000D+00 0.100D+01
 Coeff:      0.806D-03-0.241D-02 0.217D-02-0.499D-02 0.699D-01 0.109D+00
 Coeff:      0.218D+00 0.607D+00
 Gap=     0.130 Goal=   None    Shift=    0.000
 RMSDP=1.75D-05 MaxDP=7.38D-04 DE=-6.70D-04 OVMax= 2.69D-03

 Cycle   9  Pass 0  IDiag  1:
 RMSU=  1.41D-05    CP:  9.57D-01  3.56D-01  5.24D-01  4.42D-01  8.57D-01
                    CP:  6.17D-01  6.95D-01  8.57D-01
 E= -6478.34410676969     Delta-E=       -0.000020887757 Rises=F Damp=F
 DIIS: error= 5.48D-05 at cycle   9 NSaved=   9.
 NSaved= 9 IEnMin= 9 EnMin= -6478.34410676969     IErMin= 9 ErrMin= 5.48D-05
 ErrMax= 5.48D-05  0.00D+00 EMaxC= 1.00D-01 BMatC= 6.33D-06 BMatP= 3.31D-05
 IDIUse=1 WtCom= 1.00D+00 WtEn= 0.00D+00
 Coeff-Com:  0.171D-03-0.109D-03 0.127D-02-0.211D-02 0.153D-01 0.288D-01
 Coeff-Com:  0.766D-01 0.369D+00 0.511D+00
 Coeff:      0.171D-03-0.109D-03 0.127D-02-0.211D-02 0.153D-01 0.288D-01
 Coeff:      0.766D-01 0.369D+00 0.511D+00
 Gap=     0.130 Goal=   None    Shift=    0.000
 RMSDP=8.65D-06 MaxDP=7.80D-04 DE=-2.09D-05 OVMax= 8.87D-04

 Initial convergence to 1.0D-05 achieved.  Increase integral accuracy.
 Cycle  10  Pass 1  IDiag  1:
 E= -6478.34389805937     Delta-E=        0.000208710317 Rises=F Damp=F
 DIIS: error= 4.17D-04 at cycle   1 NSaved=   1.
 NSaved= 1 IEnMin= 1 EnMin= -6478.34389805937     IErMin= 1 ErrMin= 4.17D-04
 ErrMax= 4.17D-04  0.00D+00 EMaxC= 1.00D-01 BMatC= 9.37D-05 BMatP= 9.37D-05
 IDIUse=3 WtCom= 9.96D-01 WtEn= 4.17D-03
 Coeff-Com:  0.100D+01
 Coeff-En:   0.100D+01
 Coeff:      0.100D+01
 Gap=     0.130 Goal=   None    Shift=    0.000
 RMSDP=8.65D-06 MaxDP=7.80D-04 DE= 2.09D-04 OVMax= 1.18D-03

 Cycle  11  Pass 1  IDiag  1:
 RMSU=  4.15D-04    CP:  9.99D-01
 E= -6478.34398987619     Delta-E=       -0.000091816821 Rises=F Damp=F
 DIIS: error= 2.39D-05 at cycle   2 NSaved=   2.
 NSaved= 2 IEnMin= 2 EnMin= -6478.34398987619     IErMin= 2 ErrMin= 2.39D-05
 ErrMax= 2.39D-05  0.00D+00 EMaxC= 1.00D-01 BMatC= 1.80D-06 BMatP= 9.37D-05
 IDIUse=1 WtCom= 1.00D+00 WtEn= 0.00D+00
 Coeff-Com:  0.169D-01 0.983D+00
 Coeff:      0.169D-01 0.983D+00
 Gap=     0.130 Goal=   None    Shift=    0.000
 RMSDP=1.09D-05 MaxDP=6.50D-04 DE=-9.18D-05 OVMax= 7.39D-04

 Cycle  12  Pass 1  IDiag  1:
 RMSU=  8.73D-06    CP:  9.99D-01  1.02D+00
 E= -6478.34398434282     Delta-E=        0.000005533368 Rises=F Damp=F
 DIIS: error= 5.09D-05 at cycle   3 NSaved=   3.
 NSaved= 3 IEnMin= 2 EnMin= -6478.34398987619     IErMin= 2 ErrMin= 2.39D-05
 ErrMax= 5.09D-05  0.00D+00 EMaxC= 1.00D-01 BMatC= 6.99D-06 BMatP= 1.80D-06
 IDIUse=1 WtCom= 1.00D+00 WtEn= 0.00D+00
 Coeff-Com: -0.755D-02 0.669D+00 0.339D+00
 Coeff:     -0.755D-02 0.669D+00 0.339D+00
 Gap=     0.130 Goal=   None    Shift=    0.000
 RMSDP=5.60D-06 MaxDP=3.32D-04 DE= 5.53D-06 OVMax= 5.19D-04

 Cycle  13  Pass 1  IDiag  1:
 RMSU=  1.67D-06    CP:  9.99D-01  1.02D+00  3.91D-01
 E= -6478.34399179716     Delta-E=       -0.000007454340 Rises=F Damp=F
 DIIS: error= 3.71D-06 at cycle   4 NSaved=   4.
 NSaved= 4 IEnMin= 4 EnMin= -6478.34399179716     IErMin= 4 ErrMin= 3.71D-06
 ErrMax= 3.71D-06  0.00D+00 EMaxC= 1.00D-01 BMatC= 3.82D-08 BMatP= 1.80D-06
 IDIUse=1 WtCom= 1.00D+00 WtEn= 0.00D+00
 Coeff-Com: -0.459D-02 0.378D+00 0.197D+00 0.430D+00
 Coeff:     -0.459D-02 0.378D+00 0.197D+00 0.430D+00
 Gap=     0.130 Goal=   None    Shift=    0.000
 RMSDP=4.83D-07 MaxDP=2.05D-05 DE=-7.45D-06 OVMax= 4.14D-05

 Cycle  14  Pass 1  IDiag  1:
 RMSU=  4.41D-07    CP:  9.99D-01  1.02D+00  3.93D-01  8.83D-01
 E= -6478.34399183483     Delta-E=       -0.000000037669 Rises=F Damp=F
 DIIS: error= 1.11D-06 at cycle   5 NSaved=   5.
 NSaved= 5 IEnMin= 5 EnMin= -6478.34399183483     IErMin= 5 ErrMin= 1.11D-06
 ErrMax= 1.11D-06  0.00D+00 EMaxC= 1.00D-01 BMatC= 2.77D-09 BMatP= 3.82D-08
 IDIUse=1 WtCom= 1.00D+00 WtEn= 0.00D+00
 Coeff-Com: -0.194D-02 0.155D+00 0.813D-01 0.248D+00 0.518D+00
 Coeff:     -0.194D-02 0.155D+00 0.813D-01 0.248D+00 0.518D+00
 Gap=     0.130 Goal=   None    Shift=    0.000
 RMSDP=1.64D-07 MaxDP=9.06D-06 DE=-3.77D-08 OVMax= 1.39D-05

 Cycle  15  Pass 1  IDiag  1:
 RMSU=  1.33D-07    CP:  9.99D-01  1.02D+00  3.89D-01  9.12D-01  8.34D-01
 E= -6478.34399183705     Delta-E=       -0.000000002212 Rises=F Damp=F
 DIIS: error= 4.51D-07 at cycle   6 NSaved=   6.
 NSaved= 6 IEnMin= 6 EnMin= -6478.34399183705     IErMin= 6 ErrMin= 4.51D-07
 ErrMax= 4.51D-07  0.00D+00 EMaxC= 1.00D-01 BMatC= 5.06D-10 BMatP= 2.77D-09
 IDIUse=1 WtCom= 1.00D+00 WtEn= 0.00D+00
 Coeff-Com: -0.294D-03 0.214D-01 0.115D-01 0.688D-01 0.324D+00 0.575D+00
 Coeff:     -0.294D-03 0.214D-01 0.115D-01 0.688D-01 0.324D+00 0.575D+00
 Gap=     0.130 Goal=   None    Shift=    0.000
 RMSDP=7.11D-08 MaxDP=5.91D-06 DE=-2.21D-09 OVMax= 7.50D-06

 Cycle  16  Pass 1  IDiag  1:
 RMSU=  4.66D-08    CP:  9.99D-01  1.02D+00  3.91D-01  9.19D-01  8.75D-01
                    CP:  6.68D-01
 E= -6478.34399183759     Delta-E=       -0.000000000542 Rises=F Damp=F
 DIIS: error= 2.00D-07 at cycle   7 NSaved=   7.
 NSaved= 7 IEnMin= 7 EnMin= -6478.34399183759     IErMin= 7 ErrMin= 2.00D-07
 ErrMax= 2.00D-07  0.00D+00 EMaxC= 1.00D-01 BMatC= 7.80D-11 BMatP= 5.06D-10
 IDIUse=1 WtCom= 1.00D+00 WtEn= 0.00D+00
 Coeff-Com:  0.455D-04-0.497D-02-0.241D-02 0.133D-01 0.139D+00 0.357D+00
 Coeff-Com:  0.498D+00
 Coeff:      0.455D-04-0.497D-02-0.241D-02 0.133D-01 0.139D+00 0.357D+00
 Coeff:      0.498D+00
 Gap=     0.130 Goal=   None    Shift=    0.000
 RMSDP=2.46D-08 MaxDP=1.02D-06 DE=-5.42D-10 OVMax= 3.04D-06

 Cycle  17  Pass 1  IDiag  1:
 RMSU=  1.84D-08    CP:  9.99D-01  1.02D+00  3.92D-01  9.22D-01  8.73D-01
                    CP:  7.24D-01  7.19D-01
 E= -6478.34399183765     Delta-E=       -0.000000000058 Rises=F Damp=F
 DIIS: error= 6.38D-08 at cycle   8 NSaved=   8.
 NSaved= 8 IEnMin= 8 EnMin= -6478.34399183765     IErMin= 8 ErrMin= 6.38D-08
 ErrMax= 6.38D-08  0.00D+00 EMaxC= 1.00D-01 BMatC= 8.71D-12 BMatP= 7.80D-11
 IDIUse=1 WtCom= 1.00D+00 WtEn= 0.00D+00
 Coeff-Com:  0.535D-04-0.495D-02-0.249D-02 0.265D-02 0.608D-01 0.176D+00
 Coeff-Com:  0.310D+00 0.458D+00
 Coeff:      0.535D-04-0.495D-02-0.249D-02 0.265D-02 0.608D-01 0.176D+00
 Coeff:      0.310D+00 0.458D+00
 Gap=     0.130 Goal=   None    Shift=    0.000
 RMSDP=9.13D-09 MaxDP=3.39D-07 DE=-5.82D-11 OVMax= 1.14D-06

 SCF Done:  E(RPBE1PBE) =  -6478.34399184     A.U. after   17 cycles
            NFock= 17  Conv=0.91D-08     -V/T= 2.0030
 KE= 6.459094695766D+03 PE=-2.603221859073D+04 EE= 7.789495742065D+03
 Leave Link  502 at Fri Jan 24 16:54:56 2025, MaxMem=  3221225472 cpu:            4022.8 elap:             168.7
 (Enter /software/gaussian/G16-C.01/avx2/g16/l601.exe)
 Copying SCF densities to generalized density rwf, IOpCl= 0 IROHF=0.

 **********************************************************************

            Population analysis using the SCF Density.

 **********************************************************************

 Orbital symmetries:
       Occupied  (A) (A) (A) (A) (A) (A) (A) (A) (A) (A) (A) (A)
                 (A) (A) (A) (A) (A) (A) (A) (A) (A) (A) (A) (A)
                 (A) (A) (A) (A) (A) (A) (A) (A) (A) (A) (A) (A)
                 (A) (A) (A) (A) (A) (A) (A) (A) (A) (A) (A) (A)
                 (A) (A) (A) (A) (A) (A) (A) (A) (A) (A) (A) (A)
                 (A) (A) (A) (A) (A) (A) (A) (A) (A) (A) (A) (A)
                 (A) (A) (A) (A) (A) (A) (A) (A) (A) (A) (A) (A)
                 (A) (A) (A) (A) (A) (A) (A) (A) (A) (A) (A) (A)
                 (A) (A) (A) (A) (A) (A) (A) (A) (A) (A) (A) (A)
                 (A) (A) (A) (A) (A) (A) (A) (A) (A) (A) (A) (A)
                 (A) (A) (A) (A) (A) (A) (A) (A) (A) (A) (A) (A)
                 (A) (A) (A) (A) (A) (A) (A) (A) (A) (A) (A) (A)
                 (A) (A) (A) (A) (A) (A) (A) (A) (A)
       Virtual   (A) (A) (A) (A) (A) (A) (A) (A) (A) (A) (A) (A)
                 (A) (A) (A) (A) (A) (A) (A) (A) (A) (A) (A) (A)
                 (A) (A) (A) (A) (A) (A) (A) (A) (A) (A) (A) (A)
                 (A) (A) (A) (A) (A) (A) (A) (A) (A) (A) (A) (A)
                 (A) (A) (A) (A) (A) (A) (A) (A) (A) (A) (A) (A)
                 (A) (A) (A) (A) (A) (A) (A) (A) (A) (A) (A) (A)
                 (A) (A) (A) (A) (A) (A) (A) (A) (A) (A) (A) (A)
                 (A) (A) (A) (A) (A) (A) (A) (A) (A) (A) (A) (A)
                 (A) (A) (A) (A) (A) (A) (A) (A) (A) (A) (A) (A)
                 (A) (A) (A) (A) (A) (A) (A) (A) (A) (A) (A) (A)
                 (A) (A) (A) (A) (A) (A) (A) (A) (A) (A) (A) (A)
                 (A) (A) (A) (A) (A) (A) (A) (A) (A) (A) (A) (A)
                 (A) (A) (A) (A) (A) (A) (A) (A) (A) (A) (A) (A)
                 (A) (A) (A) (A) (A) (A) (A) (A) (A) (A) (A) (A)
                 (A) (A) (A) (A) (A) (A) (A) (A) (A) (A) (A) (A)
                 (A) (A) (A) (A) (A) (A) (A) (A) (A) (A) (A) (A)
                 (A) (A) (A) (A) (A) (A) (A) (A) (A) (A) (A) (A)
                 (A) (A) (A) (A) (A) (A) (A) (A) (A) (A) (A) (A)
                 (A) (A) (A) (A) (A) (A) (A) (A) (A) (A) (A) (A)
                 (A) (A) (A) (A) (A) (A) (A) (A) (A) (A) (A) (A)
                 (A) (A) (A) (A) (A) (A) (A) (A) (A) (A) (A) (A)
                 (A) (A) (A) (A) (A) (A) (A) (A) (A) (A) (A) (A)
                 (A) (A) (A) (A) (A) (A) (A) (A) (A) (A) (A) (A)
                 (A) (A) (A) (A) (A) (A) (A) (A) (A) (A) (A) (A)
                 (A) (A) (A) (A) (A) (A) (A) (A) (A) (A) (A) (A)
                 (A) (A) (A) (A) (A) (A) (A) (A) (A) (A) (A) (A)
                 (A) (A) (A) (A) (A) (A) (A) (A) (A) (A) (A) (A)
                 (A) (A) (A) (A) (A) (A) (A) (A) (A) (A) (A) (A)
                 (A) (A) (A) (A) (A) (A) (A) (A) (A) (A) (A) (A)
                 (A) (A) (A) (A) (A) (A) (A) (A) (A) (A) (A) (A)
                 (A) (A) (A) (A) (A) (A) (A) (A) (A) (A) (A) (A)
                 (A) (A) (A) (A) (A) (A) (A) (A) (A) (A) (A) (A)
                 (A) (A) (A) (A) (A) (A) (A) (A) (A) (A) (A) (A)
                 (A) (A) (A) (A) (A) (A) (A) (A) (A) (A) (A) (A)
                 (A) (A) (A) (A) (A) (A) (A) (A) (A) (A) (A) (A)
                 (A) (A) (A) (A) (A) (A) (A) (A) (A) (A) (A) (A)
                 (A) (A) (A) (A) (A) (A) (A) (A) (A) (A) (A) (A)
                 (A) (A) (A) (A) (A) (A) (A) (A) (A) (A) (A) (A)
                 (A) (A) (A) (A) (A) (A) (A) (A) (A) (A) (A) (A)
                 (A) (A) (A) (A) (A) (A) (A) (A) (A) (A) (A) (A)
                 (A) (A) (A) (A) (A) (A) (A) (A) (A) (A) (A) (A)
                 (A) (A) (A) (A) (A) (A) (A) (A) (A) (A) (A) (A)
                 (A) (A) (A) (A) (A) (A) (A) (A) (A) (A) (A) (A)
                 (A) (A) (A) (A) (A) (A) (A) (A) (A) (A) (A) (A)
                 (A) (A) (A) (A) (A) (A) (A) (A) (A)
 The electronic state is 1-A.
 Alpha  occ. eigenvalues -- -483.09366-483.09146 -62.52704 -62.52507 -56.31685
 Alpha  occ. eigenvalues --  -56.31485 -56.31360 -56.31350 -56.31159 -56.31152
 Alpha  occ. eigenvalues --  -14.37908 -14.29975 -10.18266 -10.18021 -10.17968
 Alpha  occ. eigenvalues --  -10.16119 -10.15376 -10.15073 -10.14904 -10.14377
 Alpha  occ. eigenvalues --  -10.14290 -10.14233 -10.14146 -10.14130 -10.13927
 Alpha  occ. eigenvalues --  -10.13819 -10.13800 -10.13530 -10.12861 -10.12319
 Alpha  occ. eigenvalues --  -10.12251 -10.12108 -10.11972 -10.11568 -10.11492
 Alpha  occ. eigenvalues --  -10.11318 -10.11245 -10.10986 -10.10342 -10.10201
 Alpha  occ. eigenvalues --  -10.09864 -10.09711 -10.06294  -8.67282  -8.67107
 Alpha  occ. eigenvalues --   -6.54522  -6.48703  -6.48533  -6.47512  -6.47483
 Alpha  occ. eigenvalues --   -6.47332  -6.47313  -2.57265  -2.57100  -2.56924
 Alpha  occ. eigenvalues --   -2.56901  -2.56749  -2.56734  -2.55946  -2.55946
 Alpha  occ. eigenvalues --   -2.55769  -2.55769  -0.98108  -0.80030  -0.78327
 Alpha  occ. eigenvalues --   -0.76281  -0.74734  -0.73210  -0.72552  -0.70927
 Alpha  occ. eigenvalues --   -0.70635  -0.69653  -0.69272  -0.67589  -0.65827
 Alpha  occ. eigenvalues --   -0.64095  -0.62583  -0.62335  -0.61583  -0.59365
 Alpha  occ. eigenvalues --   -0.57689  -0.57122  -0.56008  -0.55018  -0.53564
 Alpha  occ. eigenvalues --   -0.51878  -0.51012  -0.50155  -0.49171  -0.49017
 Alpha  occ. eigenvalues --   -0.48147  -0.47160  -0.45209  -0.43062  -0.42071
 Alpha  occ. eigenvalues --   -0.41504  -0.41082  -0.40641  -0.39812  -0.37627
 Alpha  occ. eigenvalues --   -0.37161  -0.36613  -0.36376  -0.36091  -0.35435
 Alpha  occ. eigenvalues --   -0.35018  -0.34761  -0.34253  -0.33902  -0.33648
 Alpha  occ. eigenvalues --   -0.33145  -0.32922  -0.32823  -0.31791  -0.31583
 Alpha  occ. eigenvalues --   -0.30928  -0.30636  -0.30195  -0.30111  -0.29525
 Alpha  occ. eigenvalues --   -0.28178  -0.28014  -0.27741  -0.27361  -0.26582
 Alpha  occ. eigenvalues --   -0.25932  -0.25486  -0.25363  -0.25273  -0.25027
 Alpha  occ. eigenvalues --   -0.24084  -0.23749  -0.23303  -0.22159  -0.21539
 Alpha  occ. eigenvalues --   -0.21040  -0.20866  -0.20464  -0.20047  -0.19828
 Alpha  occ. eigenvalues --   -0.19292  -0.19163  -0.17279  -0.16782  -0.16426
 Alpha  occ. eigenvalues --   -0.15514  -0.15240  -0.14422  -0.14215  -0.13236
 Alpha  occ. eigenvalues --   -0.12642  -0.12246  -0.05970
 Alpha virt. eigenvalues --    0.07043   0.07526   0.09341   0.09877   0.10050
 Alpha virt. eigenvalues --    0.10999   0.11847   0.13166   0.13508   0.14137
 Alpha virt. eigenvalues --    0.15983   0.16328   0.17098   0.17298   0.17689
 Alpha virt. eigenvalues --    0.18552   0.19290   0.19780   0.20192   0.21244
 Alpha virt. eigenvalues --    0.21621   0.21706   0.22159   0.22483   0.22668
 Alpha virt. eigenvalues --    0.23317   0.23460   0.23618   0.23847   0.24396
 Alpha virt. eigenvalues --    0.25194   0.25434   0.25771   0.26223   0.26516
 Alpha virt. eigenvalues --    0.26882   0.27188   0.27568   0.28145   0.28672
 Alpha virt. eigenvalues --    0.29776   0.30089   0.30934   0.31157   0.31740
 Alpha virt. eigenvalues --    0.31923   0.32900   0.33502   0.33966   0.34599
 Alpha virt. eigenvalues --    0.35685   0.35831   0.36404   0.36898   0.37738
 Alpha virt. eigenvalues --    0.38096   0.38290   0.38559   0.39048   0.39894
 Alpha virt. eigenvalues --    0.40310   0.40677   0.41102   0.41396   0.42156
 Alpha virt. eigenvalues --    0.42516   0.42968   0.43852   0.44441   0.45038
 Alpha virt. eigenvalues --    0.45460   0.45797   0.46357   0.46875   0.47374
 Alpha virt. eigenvalues --    0.48138   0.48713   0.49201   0.49983   0.50420
 Alpha virt. eigenvalues --    0.50618   0.51186   0.51511   0.52124   0.52375
 Alpha virt. eigenvalues --    0.52762   0.53143   0.53650   0.54167   0.54551
 Alpha virt. eigenvalues --    0.54806   0.55159   0.55453   0.55636   0.56139
 Alpha virt. eigenvalues --    0.56393   0.57115   0.57456   0.57857   0.58006
 Alpha virt. eigenvalues --    0.58731   0.59128   0.59783   0.59845   0.60134
 Alpha virt. eigenvalues --    0.60500   0.60816   0.61211   0.61579   0.61647
 Alpha virt. eigenvalues --    0.62063   0.62443   0.62613   0.62864   0.63058
 Alpha virt. eigenvalues --    0.63717   0.63798   0.64187   0.64623   0.64828
 Alpha virt. eigenvalues --    0.65355   0.65859   0.66607   0.66687   0.67750
 Alpha virt. eigenvalues --    0.68124   0.68213   0.68835   0.69334   0.69783
 Alpha virt. eigenvalues --    0.70233   0.70799   0.70884   0.71571   0.72092
 Alpha virt. eigenvalues --    0.72677   0.72919   0.73336   0.73863   0.74177
 Alpha virt. eigenvalues --    0.74542   0.74857   0.75139   0.75442   0.76009
 Alpha virt. eigenvalues --    0.76195   0.76437   0.76869   0.77134   0.77359
 Alpha virt. eigenvalues --    0.77565   0.77614   0.78236   0.78363   0.78725
 Alpha virt. eigenvalues --    0.79002   0.79196   0.79435   0.79508   0.79712
 Alpha virt. eigenvalues --    0.79988   0.80534   0.80670   0.80873   0.81150
 Alpha virt. eigenvalues --    0.81485   0.81710   0.81862   0.81946   0.82625
 Alpha virt. eigenvalues --    0.82871   0.83131   0.83306   0.83913   0.84191
 Alpha virt. eigenvalues --    0.84365   0.84542   0.85065   0.85637   0.86206
 Alpha virt. eigenvalues --    0.86420   0.86586   0.87104   0.87678   0.87911
 Alpha virt. eigenvalues --    0.88100   0.88935   0.89209   0.89735   0.89835
 Alpha virt. eigenvalues --    0.90250   0.90642   0.91351   0.91653   0.91816
 Alpha virt. eigenvalues --    0.92283   0.93146   0.93464   0.93988   0.94145
 Alpha virt. eigenvalues --    0.94569   0.95499   0.96144   0.96819   0.96996
 Alpha virt. eigenvalues --    0.97698   0.98420   0.98719   0.99407   1.00413
 Alpha virt. eigenvalues --    1.00571   1.01154   1.02282   1.02552   1.02696
 Alpha virt. eigenvalues --    1.03494   1.04931   1.05286   1.05601   1.07122
 Alpha virt. eigenvalues --    1.07576   1.08433   1.09631   1.09986   1.10725
 Alpha virt. eigenvalues --    1.10805   1.12167   1.13092   1.13919   1.14452
 Alpha virt. eigenvalues --    1.16132   1.16705   1.17767   1.18246   1.19232
 Alpha virt. eigenvalues --    1.19979   1.21253   1.21595   1.22393   1.23170
 Alpha virt. eigenvalues --    1.23850   1.24093   1.25351   1.26555   1.27218
 Alpha virt. eigenvalues --    1.28837   1.29206   1.30034   1.31018   1.31599
 Alpha virt. eigenvalues --    1.31894   1.32132   1.32246   1.33517   1.34190
 Alpha virt. eigenvalues --    1.34749   1.35704   1.36341   1.36779   1.37696
 Alpha virt. eigenvalues --    1.38043   1.39011   1.39373   1.39667   1.40382
 Alpha virt. eigenvalues --    1.40605   1.40836   1.41834   1.42418   1.42840
 Alpha virt. eigenvalues --    1.43270   1.43820   1.44778   1.45586   1.46304
[...]
 Alpha virt. eigenvalues --    1.66215   1.66395   1.66912   1.67333   1.67579
 Alpha virt. eigenvalues --    1.67817   1.68293   1.68641   1.69422   1.69588
 Alpha virt. eigenvalues --    1.69909   1.69987   1.70345   1.70730   1.70872
 Alpha virt. eigenvalues --    1.71458   1.71830   1.72098   1.72654   1.72884
 Alpha virt. eigenvalues --    1.73208   1.73694   1.73805   1.74528   1.74764
 Alpha virt. eigenvalues --    1.74980   1.75085   1.75520   1.75590   1.76057
 Alpha virt. eigenvalues --    1.76175   1.76566   1.76685   1.77437   1.77912
 Alpha virt. eigenvalues --    1.78054   1.78355   1.78552   1.79247   1.79383
 Alpha virt. eigenvalues --    1.80029   1.80107   1.80603   1.80995   1.81359
 Alpha virt. eigenvalues --    1.81699   1.82341   1.82471   1.83419   1.83933
 Alpha virt. eigenvalues --    1.84215   1.84596   1.85096   1.85604   1.85770
 Alpha virt. eigenvalues --    1.86284   1.86385   1.87029   1.87551   1.88413
 Alpha virt. eigenvalues --    1.88687   1.89323   1.89403   1.89679   1.89788
 Alpha virt. eigenvalues --    1.90176   1.90796   1.91918   1.92148   1.92916
 Alpha virt. eigenvalues --    1.93209   1.93811   1.94311   1.94783   1.94987
 Alpha virt. eigenvalues --    1.95300   1.96016   1.96216   1.96934   1.97004
 Alpha virt. eigenvalues --    1.97183   1.97491   1.97914   1.98378   1.98974
 Alpha virt. eigenvalues --    1.99221   1.99666   2.00187   2.00499   2.00878
 Alpha virt. eigenvalues --    2.01375   2.01941   2.02491   2.02621   2.03393
 Alpha virt. eigenvalues --    2.03600   2.04220   2.04394   2.04834   2.05590
 Alpha virt. eigenvalues --    2.05929   2.07049   2.07143   2.07685   2.08209
 Alpha virt. eigenvalues --    2.08960   2.09443   2.10304   2.11045   2.11586
 Alpha virt. eigenvalues --    2.11713   2.13068   2.13174   2.14058   2.14360
 Alpha virt. eigenvalues --    2.14679   2.14904   2.16360   2.16411   2.16467
 Alpha virt. eigenvalues --    2.17190   2.17517   2.17936   2.18146   2.19094
 Alpha virt. eigenvalues --    2.19527   2.19795   2.20542   2.20789   2.21032
 Alpha virt. eigenvalues --    2.21345   2.21980   2.23228   2.23564   2.23698
 Alpha virt. eigenvalues --    2.24104   2.25263   2.25685   2.26447   2.27388
 Alpha virt. eigenvalues --    2.28329   2.28599   2.29146   2.29501   2.29773
 Alpha virt. eigenvalues --    2.30532   2.31281   2.31479   2.32257   2.32549
 Alpha virt. eigenvalues --    2.33140   2.33947   2.34665   2.34848   2.35128
 Alpha virt. eigenvalues --    2.35542   2.35993   2.37033   2.37556   2.38114
 Alpha virt. eigenvalues --    2.38690   2.39083   2.39464   2.40411   2.40934
 Alpha virt. eigenvalues --    2.41535   2.42411   2.43144   2.43920   2.44538
 Alpha virt. eigenvalues --    2.44775   2.45137   2.45929   2.46244   2.46634
 Alpha virt. eigenvalues --    2.46790   2.47271   2.48023   2.48424   2.49071
 Alpha virt. eigenvalues --    2.49330   2.49943   2.50201   2.50790   2.51068
 Alpha virt. eigenvalues --    2.51271   2.52301   2.52519   2.53186   2.53321
 Alpha virt. eigenvalues --    2.53828   2.54626   2.54723   2.55646   2.55837
 Alpha virt. eigenvalues --    2.56183   2.56614   2.57407   2.58024   2.58430
 Alpha virt. eigenvalues --    2.58886   2.59081   2.59686   2.60338   2.60734
 Alpha virt. eigenvalues --    2.61859   2.62021   2.62578   2.62826   2.63498
 Alpha virt. eigenvalues --    2.64041   2.64404   2.64846   2.65243   2.65898
 Alpha virt. eigenvalues --    2.66004   2.66666   2.67204   2.67606   2.68015
 Alpha virt. eigenvalues --    2.68776   2.69031   2.69259   2.69931   2.70231
 Alpha virt. eigenvalues --    2.70533   2.71286   2.71804   2.72798   2.73169
 Alpha virt. eigenvalues --    2.73535   2.73723   2.74180   2.74451   2.74758
 Alpha virt. eigenvalues --    2.75237   2.75875   2.76160   2.76466   2.76934
 Alpha virt. eigenvalues --    2.77308   2.77802   2.78092   2.78513   2.79378
 Alpha virt. eigenvalues --    2.79693   2.79875   2.80643   2.80886   2.81239
 Alpha virt. eigenvalues --    2.81587   2.82334   2.82710   2.82970   2.83329
 Alpha virt. eigenvalues --    2.83929   2.84203   2.84499   2.84791   2.85080
 Alpha virt. eigenvalues --    2.85395   2.86370   2.86790   2.87517   2.88159
 Alpha virt. eigenvalues --    2.88746   2.88917   2.89183   2.89316   2.89720
 Alpha virt. eigenvalues --    2.90395   2.90770   2.91156   2.91365   2.91799
 Alpha virt. eigenvalues --    2.92353   2.93021   2.93301   2.93631   2.94127
 Alpha virt. eigenvalues --    2.94200   2.94437   2.94916   2.95564   2.96085
 Alpha virt. eigenvalues --    2.96394   2.96966   2.97389   2.97605   2.97939
 Alpha virt. eigenvalues --    2.98609   2.99103   2.99327   2.99687   2.99961
 Alpha virt. eigenvalues --    3.00158   3.00805   3.01182   3.01373   3.02235
 Alpha virt. eigenvalues --    3.02901   3.03121   3.03343   3.03952   3.04496
 Alpha virt. eigenvalues --    3.04871   3.04974   3.05887   3.06234   3.06565
 Alpha virt. eigenvalues --    3.06816   3.07017   3.07589   3.08277   3.08863
 Alpha virt. eigenvalues --    3.09332   3.09883   3.10896   3.11557   3.11655
 Alpha virt. eigenvalues --    3.12105   3.12544   3.13890   3.14535   3.14862
 Alpha virt. eigenvalues --    3.14928   3.15786   3.15952   3.16878   3.17256
 Alpha virt. eigenvalues --    3.17597   3.18231   3.18522   3.18886   3.19661
 Alpha virt. eigenvalues --    3.19891   3.20142   3.20815   3.21091   3.21741
 Alpha virt. eigenvalues --    3.21994   3.22623   3.22670   3.23406   3.24045
 Alpha virt. eigenvalues --    3.24204   3.24306   3.24899   3.25577   3.26184
 Alpha virt. eigenvalues --    3.26198   3.26573   3.27077   3.27794   3.28263
 Alpha virt. eigenvalues --    3.28560   3.28703   3.29028   3.29328   3.30318
 Alpha virt. eigenvalues --    3.30399   3.31036   3.31430   3.32183   3.32539
 Alpha virt. eigenvalues --    3.32727   3.33103   3.33743   3.34005   3.34236
 Alpha virt. eigenvalues --    3.34800   3.35244   3.35349   3.35528   3.35970
 Alpha virt. eigenvalues --    3.36812   3.37228   3.37409   3.37498   3.38324
 Alpha virt. eigenvalues --    3.38807   3.39093   3.39410   3.39655   3.39958
 Alpha virt. eigenvalues --    3.40401   3.40465   3.41275   3.41599   3.42293
 Alpha virt. eigenvalues --    3.42727   3.43002   3.43403   3.43980   3.44291
 Alpha virt. eigenvalues --    3.44601   3.44948   3.45259   3.45756   3.45941
 Alpha virt. eigenvalues --    3.46415   3.46945   3.47427   3.48644   3.48879
 Alpha virt. eigenvalues --    3.49028   3.49284   3.49622   3.50185   3.50391
 Alpha virt. eigenvalues --    3.50712   3.51073   3.51210   3.51368   3.51638
 Alpha virt. eigenvalues --    3.52176   3.52557   3.52862   3.52953   3.53459
 Alpha virt. eigenvalues --    3.53863   3.54067   3.54264   3.54444   3.54625
 Alpha virt. eigenvalues --    3.54928   3.55377   3.56165   3.56560   3.57191
 Alpha virt. eigenvalues --    3.57848   3.58161   3.58444   3.58865   3.59101
 Alpha virt. eigenvalues --    3.59617   3.59942   3.60373   3.60682   3.61296
 Alpha virt. eigenvalues --    3.61605   3.61765   3.62225   3.62482   3.63242
 Alpha virt. eigenvalues --    3.63602   3.63883   3.64307   3.64609   3.64883
 Alpha virt. eigenvalues --    3.66026   3.66144   3.66414   3.67047   3.67297
 Alpha virt. eigenvalues --    3.67700   3.68631   3.69402   3.69944   3.70131
 Alpha virt. eigenvalues --    3.70977   3.71532   3.71681   3.72180   3.72800
 Alpha virt. eigenvalues --    3.73127   3.73595   3.74223   3.75029   3.75123
 Alpha virt. eigenvalues --    3.75866   3.76234   3.76834   3.77602   3.77859
 Alpha virt. eigenvalues --    3.78324   3.78965   3.79447   3.79836   3.80419
 Alpha virt. eigenvalues --    3.80823   3.81699   3.82313   3.82763   3.83033
 Alpha virt. eigenvalues --    3.83475   3.83943   3.84805   3.85097   3.86213
 Alpha virt. eigenvalues --    3.86246   3.86991   3.87380   3.87980   3.89550
 Alpha virt. eigenvalues --    3.89923   3.90501   3.90621   3.91268   3.91971
 Alpha virt. eigenvalues --    3.92711   3.92983   3.93280   3.94082   3.94582
 Alpha virt. eigenvalues --    3.95238   3.96208   3.96375   3.96965   3.97291
 Alpha virt. eigenvalues --    3.98726   3.99591   4.00291   4.00928   4.01468
 Alpha virt. eigenvalues --    4.01903   4.02988   4.03369   4.04693   4.05586
 Alpha virt. eigenvalues --    4.05808   4.07133   4.08059   4.08623   4.09097
 Alpha virt. eigenvalues --    4.10166   4.10943   4.12026   4.12990   4.14364
 Alpha virt. eigenvalues --    4.14615   4.15369   4.15528   4.16316   4.17116
 Alpha virt. eigenvalues --    4.17596   4.18140   4.18585   4.19246   4.20034
 Alpha virt. eigenvalues --    4.21224   4.21906   4.22511   4.22702   4.23046
 Alpha virt. eigenvalues --    4.23684   4.24371   4.24911   4.24974   4.25483
 Alpha virt. eigenvalues --    4.26645   4.26727   4.27209   4.27498   4.28026
 Alpha virt. eigenvalues --    4.29034   4.29368   4.29702   4.29868   4.30797
 Alpha virt. eigenvalues --    4.31088   4.31446   4.31911   4.32149   4.32934
 Alpha virt. eigenvalues --    4.33732   4.33902   4.34144   4.34637   4.35143
 Alpha virt. eigenvalues --    4.35560   4.36288   4.36563   4.36947   4.37567
 Alpha virt. eigenvalues --    4.37869   4.38254   4.39282   4.39741   4.39954
 Alpha virt. eigenvalues --    4.40742   4.41220   4.41831   4.42159   4.42443
 Alpha virt. eigenvalues --    4.43103   4.43819   4.44559   4.45310   4.46067
 Alpha virt. eigenvalues --    4.46980   4.48035   4.48472   4.48771   4.49092
 Alpha virt. eigenvalues --    4.50736   4.51228   4.51734   4.52609   4.53179
 Alpha virt. eigenvalues --    4.53374   4.54397   4.54805   4.55338   4.56126
 Alpha virt. eigenvalues --    4.56330   4.56779   4.58017   4.59609   4.59782
 Alpha virt. eigenvalues --    4.59983   4.61445   4.62077   4.62708   4.63178
 Alpha virt. eigenvalues --    4.64409   4.64749   4.66283   4.67006   4.68519
 Alpha virt. eigenvalues --    4.69180   4.69915   4.71220   4.71646   4.72736
 Alpha virt. eigenvalues --    4.74144   4.74849   4.76347   4.77503   4.78613
 Alpha virt. eigenvalues --    4.79306   4.80300   4.81761   4.82641   4.84030
 Alpha virt. eigenvalues --    4.85108   4.85696   4.86489   4.87590   4.87966
 Alpha virt. eigenvalues --    4.89398   4.90321   4.90736   4.92866   4.93390
 Alpha virt. eigenvalues --    4.93689   4.94529   4.96371   4.98543   4.99266
 Alpha virt. eigenvalues --    5.00225   5.01123   5.02189   5.02836   5.04140
 Alpha virt. eigenvalues --    5.04650   5.07583   5.08531   5.10733   5.11196
 Alpha virt. eigenvalues --    5.11560   5.12263   5.12715   5.14556   5.15011
 Alpha virt. eigenvalues --    5.17468   5.17725   5.18709   5.19881   5.20839
 Alpha virt. eigenvalues --    5.22670   5.26105   5.27591   5.28865   5.29613
 Alpha virt. eigenvalues --    5.31291   5.31609   5.33375   5.34195   5.37843
 Alpha virt. eigenvalues --    5.39101   5.40435   5.41138   5.42440   5.44081
 Alpha virt. eigenvalues --    5.44792   5.47328   5.49221   5.53775   5.54143
 Alpha virt. eigenvalues --    5.55991   5.57856   5.59660   5.60219   5.63396
 Alpha virt. eigenvalues --    5.67165   5.69643   5.71217   5.71848   5.75452
 Alpha virt. eigenvalues --    5.80629   5.83261   5.85396   5.88512   5.95508
 Alpha virt. eigenvalues --    6.01049   6.06937   6.20494   6.39426   6.47298
 Alpha virt. eigenvalues --    7.21431   7.88896   7.90635  15.66212  22.49250
 Alpha virt. eigenvalues --   22.54534  22.57209  22.58062  22.60831  22.63222
 Alpha virt. eigenvalues --   22.64707  22.68362  22.69162  22.80584  22.90308
 Alpha virt. eigenvalues --   22.92013  22.92411  22.92706  22.96232  22.98566
 Alpha virt. eigenvalues --   22.99574  23.01725  23.05165  23.07843  23.08855
 Alpha virt. eigenvalues --   23.14013  23.15440  23.17785  23.23520  23.31658
 Alpha virt. eigenvalues --   23.32478  23.40805  23.43482  23.67377  23.96975
 Alpha virt. eigenvalues --   32.57818  33.26711
          Condensed to atoms (all electrons):
 Mulliken charges:
               1
     1  C   -0.095332
     2  C   -0.354376
     3  C    0.141605
     4  C   -0.130920
     5  C   -0.252478
     6  C   -0.124214
     7  C    0.039334
     8  B   -0.476200
     9  C   -0.344425
    10  C    0.183579
    11  C   -0.354626
    12  C   -0.348333
    13  C   -0.376264
    14  C    0.077446
    15  C   -0.200611
    16  C    0.269311
    17  Br  -0.172660
    18  C   -0.333051
    19  C    0.232872
    20  Br  -0.167152
    21  C   -0.281169
    22  C   -0.078049
    23  C    0.191715
    24  C    0.401495
    25  C   -0.353762
    26  C   -0.092731
    27  C   -0.242558
    28  C   -0.172101
    29  C   -0.036529
    30  C   -0.406084
    31  C    0.124855
    32  N    0.300323
    33  C   -0.118513
    34  C   -0.146297
    35  C   -0.125531
    36  N   -0.235597
    37  H    0.091995
    38  H    0.096142
    39  H    0.079241
    40  H    0.070347
    41  H    0.097581
    42  H    0.085186
    43  H    0.099705
    44  H    0.090955
    45  H    0.085612
    46  H    0.121987
    47  H    0.086955
    48  H    0.097280
    49  H    0.100482
    50  H    0.081297
    51  H    0.090398
    52  H    0.149069
    53  H    0.138541
    54  H    0.110083
    55  H    0.133814
    56  H    0.112510
    57  H    0.099570
    58  H    0.087571
    59  H    0.083187
    60  H    0.150491
    61  H    0.127533
    62  H    0.105067
    63  H    0.130418
    64  H    0.102739
    65  H    0.100199
    66  H    0.051073
 Sum of Mulliken charges =  -1.00000
 Mulliken charges with hydrogens summed into heavy atoms:
               1
     1  C   -0.003337
     2  C   -0.258234
     3  C    0.141605
     4  C   -0.051679
     5  C   -0.182131
     6  C   -0.026633
     7  C    0.039334
     8  B   -0.425127
     9  C   -0.159534
    10  C    0.183579
    11  C   -0.056072
    12  C   -0.063616
    13  C   -0.055499
    14  C    0.077446
    15  C   -0.062070
    16  C    0.269311
    17  Br  -0.172660
    18  C   -0.222969
    19  C    0.232872
    20  Br  -0.167152
    21  C   -0.147356
    22  C   -0.078049
    23  C    0.191715
    24  C    0.401495
    25  C   -0.241251
    26  C    0.006839
    27  C   -0.154987
    28  C   -0.088915
    29  C   -0.036529
    30  C   -0.022993
    31  C    0.124855
    32  N    0.300323
    33  C    0.011905
    34  C   -0.043559
    35  C   -0.025332
    36  N   -0.235597
 Electronic spatial extent (au):  <R**2>=          17786.1874
 Charge=             -1.0000 electrons
 Dipole moment (field-independent basis, Debye):
    X=              0.0693    Y=              2.1980    Z=             -3.9199  Tot=              4.4946
 Quadrupole moment (field-independent basis, Debye-Ang):
   XX=           -270.6330   YY=           -269.7534   ZZ=           -265.5831
   XY=             -2.8281   XZ=             -0.5788   YZ=              3.5957
 Traceless Quadrupole moment (field-independent basis, Debye-Ang):
   XX=             -1.9765   YY=             -1.0969   ZZ=              3.0734
   XY=             -2.8281   XZ=             -0.5788   YZ=              3.5957
 Octapole moment (field-independent basis, Debye-Ang**2):
  XXX=           -181.8224  YYY=             80.7317  ZZZ=            -74.4502  XYY=            -81.0154
  XXY=              4.9411  XXZ=            -25.2163  XZZ=            -66.8830  YZZ=             49.8748
  YYZ=            -40.4820  XYZ=              2.7212
 Hexadecapole moment (field-independent basis, Debye-Ang**3):
 XXXX=          -9871.6038 YYYY=          -7416.6358 ZZZZ=          -6297.2965 XXXY=           -154.2139
 XXXZ=            121.0714 YYYX=           -186.2665 YYYZ=            385.6763 ZZZX=            141.3518
 ZZZY=            478.8969 XXYY=          -2966.6258 XXZZ=          -2659.5258 YYZZ=          -2423.2169
 XXYZ=             36.2802 YYXZ=             73.8928 ZZXY=            -28.8816
 N-N= 5.291787059850D+03 E-N=-2.601479203385D+04  KE= 6.466640058958D+03
 No NMR shielding tensors so no spin-rotation constants.
 Leave Link  601 at Fri Jan 24 19:15:06 2025, MaxMem=  3221225472 cpu:              40.2 elap:               1.9
 (Enter /software/gaussian/G16-C.01/avx2/g16/l9999.exe)
 Unable to Open any file for archive entry.
 1\1\GINC-NODE51\SP\RPBE1PBE\def2TZVP\C31H30B1Br2N2(1-)\LAPLAZA\24-Jan-
 2025\0\\#p def2tzvp pbe1pbe integral=ultrafinegrid geom=allcheck guess
 =read em=gd3bj\\with_hydride\\-1,1\C,0,-3.6625502689,-1.4110475801,2.4
 175733461\C,0,-3.3167759957,-2.1784981999,1.3675752562\C,0,-1.95877057
 86,-2.3144986892,0.8102682725\C,0,-1.418936925,-3.6079450656,0.7673957
 109\C,0,-0.1158055434,-3.7943442233,0.3291290299\C,0,0.6526741894,-2.6
 92686735,-0.0405033304\C,0,0.1615532945,-1.3772168473,-0.0464135969\B,
 0,1.075074838,-0.12676653,-0.5757344809\C,0,2.6369378193,-0.4856470562
 ,-1.0078762616\C,0,3.8507433285,-0.5618283016,-0.0488129975\C,0,3.5921
 980788,-1.4562767176,1.1661367363\C,0,5.0476667104,-1.1378825317,-0.81
 75572755\C,0,4.2446184559,0.8363993543,0.4411658139\C,0,0.9697356953,1
 .1703388413,0.4027784532\C,0,0.8435614041,2.4524500855,-0.1585309108\C
 ,0,0.7584939416,3.5807034314,0.6471427462\Br,0,0.5085385091,5.28857402
 77,-0.1583393816\C,0,0.8130480694,3.5112044973,2.0376078722\C,0,0.9431
 002964,2.2381167472,2.588224882\Br,0,1.0005760619,2.0847843013,4.48950
 74034\C,0,1.0065253635,1.0909590507,1.8072073561\C,0,-1.1976463377,-1.
 2242258133,0.3473618814\C,0,-1.8503097702,0.1130073516,0.155363757\C,0
 ,-2.1045600528,0.9656489398,1.2447760774\C,0,-2.0663256511,0.514555383
 4,2.6453739673\C,0,-2.7922022739,-0.4970414256,3.1536141853\C,0,-2.439
 5477221,2.3028041272,1.0129347158\C,0,-2.6158007721,2.7751163165,-0.27
 73268621\C,0,-2.4945971856,1.9292091182,-1.3818324991\C,0,-2.778184429
 2,2.4639287264,-2.7548587573\C,0,-2.1047455929,0.5990194265,-1.1446985
 108\N,0,-1.9998969045,-0.2870383861,-2.2535720944\C,0,-2.5155162071,-1
 .5425638592,-2.3357510574\C,0,-2.1869819361,-2.0291632706,-3.582573348
 5\C,0,-1.4650131336,-0.9728133016,-4.1829823981\N,0,-1.3643972826,0.06
 77145387,-3.3749190173\H,0,-4.6761972317,-1.5333161457,2.8218539654\H,
 0,-4.073863179,-2.8758547336,0.9856591825\H,0,-2.0271925003,-4.4545951
 479,1.0994629476\H,0,0.311575037,-4.8011313804,0.289917259\H,0,1.68006
 07892,-2.8625869989,-0.3674429556\H,0,2.9146274412,0.2596004176,-1.777
 1182237\H,0,2.5959880297,-1.4379717289,-1.5728295231\H,0,3.4197598572,
 -2.5017155706,0.867521159\H,0,4.4556453906,-1.4451210227,1.854362358\H
 ,0,2.7071937403,-1.1261930227,1.7267081628\H,0,5.953801147,-1.18613036
 04,-0.1872956445\H,0,4.8306481751,-2.1573701797,-1.1777167506\H,0,5.28
 12581403,-0.5173271373,-1.6985608342\H,0,5.1674251526,0.7955010392,1.0
 464241421\H,0,4.4275787458,1.5105065417,-0.4117442928\H,0,3.4566090116
 ,1.2906678587,1.0553835525\H,0,0.7804170298,2.5480950555,-1.2443554339
 \H,0,0.7443494306,4.4021173766,2.6606121267\H,0,1.0636682113,0.1144111
 566,2.2933217817\H,0,-1.5165467695,1.1501065984,3.3472604155\H,0,-2.79
 24252343,-0.6151125197,4.2449898986\H,0,-2.570265945,2.9737081241,1.86
 54071757\H,0,-2.8758736649,3.8238234434,-0.4418956263\H,0,-1.851134581
 5,2.5883169529,-3.3317809407\H,0,-3.4074141942,1.7738500115,-3.3362795
 767\H,0,-3.2899531203,3.4346732994,-2.6825145349\H,0,-3.0575834274,-1.
 9846164514,-1.5062888758\H,0,-2.426957453,-3.0077893587,-3.9907986926\
 H,0,-1.0094293218,-0.9333238647,-5.1725281389\H,0,0.5546014607,0.22478
 26866,-1.6379849555\\Version=ES64L-G16RevC.01\State=1-A\HF=-6480.43116
 66\RMSD=2.576e-09\Dipole=-1.5619958,0.3680005,0.7427552\Quadrupole=-2.
 6716384,1.267518,1.4041204,0.7030228,-2.2482669,-2.206472\PG=C01 [X(C3
 1H30B1Br2N2)]\\@
 The archive entry for this job was punched.


 ALMOST ANYTHING IS EASIER TO GET INTO THAN OUT OF.

                         -- AGNES ALLEN'S LAW FROM
                PAUL DICKSON'S "THE OFFICIAL RULES"
 Job cpu time:       0 days 12 hours 29 minutes 18.5 seconds.
 Elapsed time:       0 days  0 hours 31 minutes 20.1 seconds.
 File lengths (MBytes):  RWF=    906 Int=      0 D2E=      0 Chk=    122 Scr=      1
 Normal termination of Gaussian 16 at Fri Jan 24 19:15:06 2025.
