 Entering Gaussian System, Link 0=g16
 Input=neutral.com
 Output=neutral.log
 Initial command:
 /software/gaussian/G16-C.01/avx2/g16/l1.exe "/scratch/laplaza/9953174.slurm/Gau-95463.inp" -scrdir="/scratch/laplaza/9953174.slurm/"
 Entering Link 1 = /software/gaussian/G16-C.01/avx2/g16/l1.exe PID=     95464.
  
 Copyright (c) 1988-2019, Gaussian, Inc.  All Rights Reserved.
  
 This is part of the Gaussian(R) 16 program.  It is based on
 the Gaussian(R) 09 system (copyright 2009, Gaussian, Inc.),
 the Gaussian(R) 03 system (copyright 2003, Gaussian, Inc.),
 the Gaussian(R) 98 system (copyright 1998, Gaussian, Inc.),
 the Gaussian(R) 94 system (copyright 1995, Gaussian, Inc.),
 the Gaussian 92(TM) system (copyright 1992, Gaussian, Inc.),
 the Gaussian 90(TM) system (copyright 1990, Gaussian, Inc.),
 the Gaussian 88(TM) system (copyright 1988, Gaussian, Inc.),
 the Gaussian 86(TM) system (copyright 1986, Carnegie Mellon
 University), and the Gaussian 82(TM) system (copyright 1983,
 Carnegie Mellon University). Gaussian is a federally registered
 trademark of Gaussian, Inc.
  
 This software contains proprietary and confidential information,
 including trade secrets, belonging to Gaussian, Inc.
  
 This software is provided under written license and may be
 used, copied, transmitted, or stored only in accord with that
 written license.
  
 The following legend is applicable only to US Government
 contracts under FAR:
  
                    RESTRICTED RIGHTS LEGEND
  
 Use, reproduction and disclosure by the US Government is
 subject to restrictions as set forth in subparagraphs (a)
 and (c) of the Commercial Computer Software - Restricted
 Rights clause in FAR 52.227-19.
  
 Gaussian, Inc.
 340 Quinnipiac St., Bldg. 40, Wallingford CT 06492
  
  
 ---------------------------------------------------------------
 Warning -- This program may not be used in any manner that
 competes with the business of Gaussian, Inc. or will provide
 assistance to any competitor of Gaussian, Inc.  The licensee
 of this program is prohibited from giving any competitor of
 Gaussian, Inc. access to this program.  By using this program,
 the user acknowledges that Gaussian, Inc. is engaged in the
 business of creating and licensing software in the field of
 computational chemistry and represents and warrants to the
 licensee that it is not a competitor of Gaussian, Inc. and that
 it will not use this program in any manner prohibited above.
 ---------------------------------------------------------------
  

 Cite this work as:
 Gaussian 16, Revision C.01,
 M. J. Frisch, G. W. Trucks, H. B. Schlegel, G. E. Scuseria, 
 M. A. Robb, J. R. Cheeseman, G. Scalmani, V. Barone, 
 G. A. Petersson, H. Nakatsuji, X. Li, M. Caricato, A. V. Marenich, 
 J. Bloino, B. G. Janesko, R. Gomperts, B. Mennucci, H. P. Hratchian, 
 J. V. Ortiz, A. F. Izmaylov, J. L. Sonnenberg, D. Williams-Young, 
 F. Ding, F. Lipparini, F. Egidi, J. Goings, B. Peng, A. Petrone, 
 T. Henderson, D. Ranasinghe, V. G. Zakrzewski, J. Gao, N. Rega, 
 G. Zheng, W. Liang, M. Hada, M. Ehara, K. Toyota, R. Fukuda, 
 J. Hasegawa, M. Ishida, T. Nakajima, Y. Honda, O. Kitao, H. Nakai, 
 T. Vreven, K. Throssell, J. A. Montgomery, Jr., J. E. Peralta, 
 F. Ogliaro, M. J. Bearpark, J. J. Heyd, E. N. Brothers, K. N. Kudin, 
 V. N. Staroverov, T. A. Keith, R. Kobayashi, J. Normand, 
 K. Raghavachari, A. P. Rendell, J. C. Burant, S. S. Iyengar, 
 J. Tomasi, M. Cossi, J. M. Millam, M. Klene, C. Adamo, R. Cammi, 
 J. W. Ochterski, R. L. Martin, K. Morokuma, O. Farkas, 
 J. B. Foresman, and D. J. Fox, Gaussian, Inc., Wallingford CT, 2019.
 
 ******************************************
 Gaussian 16:  ES64L-G16RevC.01  3-Jul-2019
                23-Jan-2025 
 ******************************************
 %nprocshared=24
 Will use up to   24 processors via shared memory.
 %mem=24GB
 %chk=neutral.chk
 -------------------------------------------------------------------
 #p opt freq=noraman def2svp pbe1pbe em=gd3bj integral=ultrafinegrid
 -------------------------------------------------------------------
 1/18=20,19=15,26=4,38=1/1,3;
 2/9=110,12=2,17=6,18=5,40=1/2;
 3/5=43,7=101,11=2,25=1,30=1,71=1,74=-13,75=-5,124=41/1,2,3;
 4//1;
 5/5=2,38=5/2;
 6/7=2,8=2,9=2,10=2,28=1/1;
 7//1,2,3,16;
 1/18=20,19=15,26=4/3(2);
 2/9=110/2;
 99//99;
 2/9=110/2;
 3/5=43,7=101,11=2,25=1,30=1,71=1,74=-13,75=-5,124=41/1,2,3;
 4/5=5,16=3,69=1/1;
 5/5=2,38=5/2;
 7//1,2,3,16;
 1/18=20,19=15,26=4/3(-5);
 2/9=110/2;
 6/7=2,8=2,9=2,10=2,19=2,28=1/1;
 99/9=1/99;
 Leave Link    1 at Thu Jan 23 18:21:54 2025, MaxMem=  3221225472 cpu:               2.2 elap:               0.1
 (Enter /software/gaussian/G16-C.01/avx2/g16/l101.exe)
 -------
 neutral
 -------
 Symbolic Z-matrix:
 Charge =  0 Multiplicity = 1
 C                    -0.23215   2.6475    0.87087 
 C                    -0.9849    1.50327   0.75942 
 B                    -0.54291   0.15469   0.0985 
 C                     0.98993  -0.11907  -0.19011 
 C                     1.44403  -0.3039   -1.53656 
 C                     0.49558  -0.24797  -2.69698 
 C                     2.79563  -0.53102  -1.74516 
 C                     3.72275  -0.54514  -0.7225 
 C                     5.17004  -0.8154   -0.99427 
 C                     3.2792   -0.4009    0.60362 
 C                     1.9089   -0.17454   0.8854 
 C                     1.482    -0.05695   2.31794 
 C                    -1.62608  -0.97892  -0.28943 
 C                    -1.33145  -2.3171   -0.08194 
 F                    -0.1535   -2.71999   0.44443 
 C                    -2.27843  -3.30691  -0.41806 
 C                    -3.49901  -2.95271  -0.96994 
 C                    -3.80418  -1.59397  -1.1752 
 F                    -4.98049  -1.22838  -1.73719 
 C                    -2.87293  -0.59614  -0.82985 
 F                    -3.17103   0.69586  -1.12104 
 N                    -2.21358   1.72729   1.34541 
 C                    -2.11511   3.00487   1.76546 
 C                    -3.23579   3.71073   2.46349 
 O                    -0.95713   3.56598   1.45753 
 H                     0.78106   2.79984   0.50248 
 H                    -0.1244   -1.1736   -2.71775 
 H                     1.05678  -0.16424  -3.66745 
 H                    -0.16041   0.65267  -2.62932 
 H                     3.15975  -0.67144  -2.76899 
 H                     5.46847  -0.4099   -1.98542 
 H                     5.35358  -1.91531  -0.97666 
 H                     5.8205   -0.32567  -0.21881 
 H                     3.98853  -0.46114   1.41496 
 H                     2.26969  -0.4642    3.01548 
 H                     1.32021   1.02026   2.57906 
 H                     0.57062  -0.64973   2.50273 
 H                    -2.04402  -4.34827  -0.24693 
 H                    -4.22543  -3.69409  -1.24007 
 H                    -2.8414    4.57499   3.0379 
 H                    -3.74405   3.00385   3.15303 
 H                    -3.96265   4.0888    1.71327 
 
 ITRead=  0  0  0  0  0  0  0  0  0  0  0  0  0  0  0  0  0  0  0  0
 ITRead=  0  0  0  0  0  0  0  0  0  0  0  0  0  0  0  0  0  0  0  0
 ITRead=  0  0
 MicOpt= -1 -1 -1 -1 -1 -1 -1 -1 -1 -1 -1 -1 -1 -1 -1 -1 -1 -1 -1 -1
 MicOpt= -1 -1 -1 -1 -1 -1 -1 -1 -1 -1 -1 -1 -1 -1 -1 -1 -1 -1 -1 -1
 MicOpt= -1 -1
 NAtoms=     42 NQM=       42 NQMF=       0 NMMI=      0 NMMIF=      0
                NMic=       0 NMicF=      0.
                    Isotopes and Nuclear Properties:
 (Nuclear quadrupole moments (NQMom) in fm**2, nuclear magnetic moments (NMagM)
  in nuclear magnetons)

  Atom         1           2           3           4           5           6           7           8           9          10
 IAtWgt=          12          12          11          12          12          12          12          12          12          12
 AtmWgt=  12.0000000  12.0000000  11.0093053  12.0000000  12.0000000  12.0000000  12.0000000  12.0000000  12.0000000  12.0000000
 NucSpn=           0           0           3           0           0           0           0           0           0           0
 AtZEff=  -0.0000000  -0.0000000  -0.0000000  -0.0000000  -0.0000000  -0.0000000  -0.0000000  -0.0000000  -0.0000000  -0.0000000
 NQMom=    0.0000000   0.0000000   4.0590000   0.0000000   0.0000000   0.0000000   0.0000000   0.0000000   0.0000000   0.0000000
 NMagM=    0.0000000   0.0000000   2.6886370   0.0000000   0.0000000   0.0000000   0.0000000   0.0000000   0.0000000   0.0000000
 AtZNuc=   6.0000000   6.0000000   5.0000000   6.0000000   6.0000000   6.0000000   6.0000000   6.0000000   6.0000000   6.0000000

  Atom        11          12          13          14          15          16          17          18          19          20
 IAtWgt=          12          12          12          12          19          12          12          12          19          12
 AtmWgt=  12.0000000  12.0000000  12.0000000  12.0000000  18.9984032  12.0000000  12.0000000  12.0000000  18.9984032  12.0000000
 NucSpn=           0           0           0           0           1           0           0           0           1           0
 AtZEff=  -0.0000000  -0.0000000  -0.0000000  -0.0000000  -0.0000000  -0.0000000  -0.0000000  -0.0000000  -0.0000000  -0.0000000
 NQMom=    0.0000000   0.0000000   0.0000000   0.0000000   0.0000000   0.0000000   0.0000000   0.0000000   0.0000000   0.0000000
 NMagM=    0.0000000   0.0000000   0.0000000   0.0000000   2.6288670   0.0000000   0.0000000   0.0000000   2.6288670   0.0000000
 AtZNuc=   6.0000000   6.0000000   6.0000000   6.0000000   9.0000000   6.0000000   6.0000000   6.0000000   9.0000000   6.0000000

  Atom        21          22          23          24          25          26          27          28          29          30
 IAtWgt=          19          14          12          12          16           1           1           1           1           1
 AtmWgt=  18.9984032  14.0030740  12.0000000  12.0000000  15.9949146   1.0078250   1.0078250   1.0078250   1.0078250   1.0078250
 NucSpn=           1           2           0           0           0           1           1           1           1           1
 AtZEff=  -0.0000000  -0.0000000  -0.0000000  -0.0000000  -0.0000000  -0.0000000  -0.0000000  -0.0000000  -0.0000000  -0.0000000
 NQMom=    0.0000000   2.0440000   0.0000000   0.0000000   0.0000000   0.0000000   0.0000000   0.0000000   0.0000000   0.0000000
 NMagM=    2.6288670   0.4037610   0.0000000   0.0000000   0.0000000   2.7928460   2.7928460   2.7928460   2.7928460   2.7928460
 AtZNuc=   9.0000000   7.0000000   6.0000000   6.0000000   8.0000000   1.0000000   1.0000000   1.0000000   1.0000000   1.0000000

  Atom        31          32          33          34          35          36          37          38          39          40
 IAtWgt=           1           1           1           1           1           1           1           1           1           1
 AtmWgt=   1.0078250   1.0078250   1.0078250   1.0078250   1.0078250   1.0078250   1.0078250   1.0078250   1.0078250   1.0078250
 NucSpn=           1           1           1           1           1           1           1           1           1           1
 AtZEff=  -0.0000000  -0.0000000  -0.0000000  -0.0000000  -0.0000000  -0.0000000  -0.0000000  -0.0000000  -0.0000000  -0.0000000
 NQMom=    0.0000000   0.0000000   0.0000000   0.0000000   0.0000000   0.0000000   0.0000000   0.0000000   0.0000000   0.0000000
 NMagM=    2.7928460   2.7928460   2.7928460   2.7928460   2.7928460   2.7928460   2.7928460   2.7928460   2.7928460   2.7928460
 AtZNuc=   1.0000000   1.0000000   1.0000000   1.0000000   1.0000000   1.0000000   1.0000000   1.0000000   1.0000000   1.0000000

  Atom        41          42
 IAtWgt=           1           1
 AtmWgt=   1.0078250   1.0078250
 NucSpn=           1           1
 AtZEff=  -0.0000000  -0.0000000
 NQMom=    0.0000000   0.0000000
 NMagM=    2.7928460   2.7928460
 AtZNuc=   1.0000000   1.0000000
 Leave Link  101 at Thu Jan 23 18:21:55 2025, MaxMem=  3221225472 cpu:              18.8 elap:               0.8
 (Enter /software/gaussian/G16-C.01/avx2/g16/l103.exe)

 GradGradGradGradGradGradGradGradGradGradGradGradGradGradGradGradGradGrad
 Berny optimization.
 Initialization pass.
                           ----------------------------
                           !    Initial Parameters    !
                           ! (Angstroms and Degrees)  !
 --------------------------                            --------------------------
 ! Name  Definition              Value          Derivative Info.                !
 --------------------------------------------------------------------------------
 ! R1    R(1,2)                  1.3742         estimate D2E/DX2                !
 ! R2    R(1,25)                 1.309          estimate D2E/DX2                !
 ! R3    R(1,26)                 1.0888         estimate D2E/DX2                !
 ! R4    R(2,3)                  1.5655         estimate D2E/DX2                !
 ! R5    R(2,22)                 1.3796         estimate D2E/DX2                !
 ! R6    R(3,4)                  1.5836         estimate D2E/DX2                !
 ! R7    R(3,13)                 1.6152         estimate D2E/DX2                !
 ! R8    R(4,5)                  1.4329         estimate D2E/DX2                !
 ! R9    R(4,11)                 1.4157         estimate D2E/DX2                !
 ! R10   R(5,6)                  1.4998         estimate D2E/DX2                !
 ! R11   R(5,7)                  1.3863         estimate D2E/DX2                !
 ! R12   R(6,27)                 1.1143         estimate D2E/DX2                !
 ! R13   R(6,28)                 1.1242         estimate D2E/DX2                !
 ! R14   R(6,29)                 1.1163         estimate D2E/DX2                !
 ! R15   R(7,8)                  1.3804         estimate D2E/DX2                !
 ! R16   R(7,30)                 1.0957         estimate D2E/DX2                !
 ! R17   R(8,9)                  1.4972         estimate D2E/DX2                !
 ! R18   R(8,10)                 1.4058         estimate D2E/DX2                !
 ! R19   R(9,31)                 1.1117         estimate D2E/DX2                !
 ! R20   R(9,32)                 1.1153         estimate D2E/DX2                !
 ! R21   R(9,33)                 1.1244         estimate D2E/DX2                !
 ! R22   R(10,11)                1.4172         estimate D2E/DX2                !
 ! R23   R(10,34)                1.0794         estimate D2E/DX2                !
 ! R24   R(11,12)                1.4994         estimate D2E/DX2                !
 ! R25   R(12,35)                1.1282         estimate D2E/DX2                !
 ! R26   R(12,36)                1.1202         estimate D2E/DX2                !
 ! R27   R(12,37)                1.1028         estimate D2E/DX2                !
 ! R28   R(13,14)                1.3858         estimate D2E/DX2                !
 ! R29   R(13,20)                1.4118         estimate D2E/DX2                !
 ! R30   R(14,15)                1.3516         estimate D2E/DX2                !
 ! R31   R(14,16)                1.4105         estimate D2E/DX2                !
 ! R32   R(16,17)                1.3856         estimate D2E/DX2                !
 ! R33   R(16,38)                1.081          estimate D2E/DX2                !
 ! R34   R(17,18)                1.4076         estimate D2E/DX2                !
 ! R35   R(17,39)                1.0725         estimate D2E/DX2                !
 ! R36   R(18,19)                1.354          estimate D2E/DX2                !
 ! R37   R(18,20)                1.4079         estimate D2E/DX2                !
 ! R38   R(20,21)                1.3575         estimate D2E/DX2                !
 ! R39   R(22,23)                1.3485         estimate D2E/DX2                !
 ! R40   R(23,24)                1.4971         estimate D2E/DX2                !
 ! R41   R(23,25)                1.3231         estimate D2E/DX2                !
 ! R42   R(24,40)                1.1102         estimate D2E/DX2                !
 ! R43   R(24,41)                1.1106         estimate D2E/DX2                !
 ! R44   R(24,42)                1.1109         estimate D2E/DX2                !
 ! A1    A(2,1,25)             108.4956         estimate D2E/DX2                !
 ! A2    A(2,1,26)             126.7859         estimate D2E/DX2                !
 ! A3    A(25,1,26)            124.6703         estimate D2E/DX2                !
 ! A4    A(1,2,3)              126.6459         estimate D2E/DX2                !
 ! A5    A(1,2,22)             108.5551         estimate D2E/DX2                !
 ! A6    A(3,2,22)             124.7959         estimate D2E/DX2                !
 ! A7    A(2,3,4)              119.943          estimate D2E/DX2                !
 ! A8    A(2,3,13)             121.1078         estimate D2E/DX2                !
 ! A9    A(4,3,13)             118.9478         estimate D2E/DX2                !
 ! A10   A(3,4,5)              120.0192         estimate D2E/DX2                !
 ! A11   A(3,4,11)             119.7767         estimate D2E/DX2                !
 ! A12   A(5,4,11)             120.2035         estimate D2E/DX2                !
 ! A13   A(4,5,6)              121.4545         estimate D2E/DX2                !
 ! A14   A(4,5,7)              118.1307         estimate D2E/DX2                !
 ! A15   A(6,5,7)              120.4139         estimate D2E/DX2                !
 ! A16   A(5,6,27)             109.5916         estimate D2E/DX2                !
 ! A17   A(5,6,28)             110.7947         estimate D2E/DX2                !
 ! A18   A(5,6,29)             110.7833         estimate D2E/DX2                !
 ! A19   A(27,6,28)            108.8774         estimate D2E/DX2                !
 ! A20   A(27,6,29)            110.1451         estimate D2E/DX2                !
 ! A21   A(28,6,29)            106.5943         estimate D2E/DX2                !
 ! A22   A(5,7,8)              123.024          estimate D2E/DX2                !
 ! A23   A(5,7,30)             119.0514         estimate D2E/DX2                !
 ! A24   A(8,7,30)             117.8878         estimate D2E/DX2                !
 ! A25   A(7,8,9)              121.1049         estimate D2E/DX2                !
 ! A26   A(7,8,10)             119.0712         estimate D2E/DX2                !
 ! A27   A(9,8,10)             119.655          estimate D2E/DX2                !
 ! A28   A(8,9,31)             110.8234         estimate D2E/DX2                !
 ! A29   A(8,9,32)             109.5272         estimate D2E/DX2                !
 ! A30   A(8,9,33)             110.8182         estimate D2E/DX2                !
 ! A31   A(31,9,32)            109.2468         estimate D2E/DX2                !
 ! A32   A(31,9,33)            107.5006         estimate D2E/DX2                !
 ! A33   A(32,9,33)            108.8728         estimate D2E/DX2                !
 ! A34   A(8,10,11)            120.6008         estimate D2E/DX2                !
 ! A35   A(8,10,34)            119.7366         estimate D2E/DX2                !
 ! A36   A(11,10,34)           119.6625         estimate D2E/DX2                !
 ! A37   A(4,11,10)            118.8721         estimate D2E/DX2                !
 ! A38   A(4,11,12)            122.542          estimate D2E/DX2                !
 ! A39   A(10,11,12)           118.5409         estimate D2E/DX2                !
 ! A40   A(11,12,35)           111.3223         estimate D2E/DX2                !
 ! A41   A(11,12,36)           109.8316         estimate D2E/DX2                !
 ! A42   A(11,12,37)           110.6853         estimate D2E/DX2                !
 ! A43   A(35,12,36)           107.6885         estimate D2E/DX2                !
 ! A44   A(35,12,37)           106.2222         estimate D2E/DX2                !
 ! A45   A(36,12,37)           111.0069         estimate D2E/DX2                !
 ! A46   A(3,13,14)            119.9448         estimate D2E/DX2                !
 ! A47   A(3,13,20)            119.5978         estimate D2E/DX2                !
 ! A48   A(14,13,20)           120.4558         estimate D2E/DX2                !
 ! A49   A(13,14,15)           122.1008         estimate D2E/DX2                !
 ! A50   A(13,14,16)           119.9466         estimate D2E/DX2                !
 ! A51   A(15,14,16)           117.952          estimate D2E/DX2                !
 ! A52   A(14,16,17)           120.4614         estimate D2E/DX2                !
 ! A53   A(14,16,38)           119.517          estimate D2E/DX2                !
 ! A54   A(17,16,38)           120.0208         estimate D2E/DX2                !
 ! A55   A(16,17,18)           119.7233         estimate D2E/DX2                !
 ! A56   A(16,17,39)           121.3494         estimate D2E/DX2                !
 ! A57   A(18,17,39)           118.9258         estimate D2E/DX2                !
 ! A58   A(17,18,19)           120.6315         estimate D2E/DX2                !
 ! A59   A(17,18,20)           120.328          estimate D2E/DX2                !
 ! A60   A(19,18,20)           119.0199         estimate D2E/DX2                !
 ! A61   A(13,20,18)           119.0717         estimate D2E/DX2                !
 ! A62   A(13,20,21)           122.2811         estimate D2E/DX2                !
 ! A63   A(18,20,21)           118.4674         estimate D2E/DX2                !
 ! A64   A(2,22,23)            102.775          estimate D2E/DX2                !
 ! A65   A(22,23,24)           122.4976         estimate D2E/DX2                !
 ! A66   A(22,23,25)           113.1545         estimate D2E/DX2                !
 ! A67   A(24,23,25)           124.312          estimate D2E/DX2                !
 ! A68   A(23,24,40)           110.0206         estimate D2E/DX2                !
 ! A69   A(23,24,41)           109.3878         estimate D2E/DX2                !
 ! A70   A(23,24,42)           109.5949         estimate D2E/DX2                !
 ! A71   A(40,24,41)           109.6848         estimate D2E/DX2                !
 ! A72   A(40,24,42)           108.4767         estimate D2E/DX2                !
 ! A73   A(41,24,42)           109.6608         estimate D2E/DX2                !
 ! A74   A(1,25,23)            106.9457         estimate D2E/DX2                !
 ! D1    D(25,1,2,3)           178.6832         estimate D2E/DX2                !
 ! D2    D(25,1,2,22)           -1.9318         estimate D2E/DX2                !
 ! D3    D(26,1,2,3)             1.1278         estimate D2E/DX2                !
 ! D4    D(26,1,2,22)         -179.4872         estimate D2E/DX2                !
 ! D5    D(2,1,25,23)            2.7259         estimate D2E/DX2                !
 ! D6    D(26,1,25,23)        -179.6546         estimate D2E/DX2                !
 ! D7    D(1,2,3,4)             15.6652         estimate D2E/DX2                !
 ! D8    D(1,2,3,13)          -164.7829         estimate D2E/DX2                !
 ! D9    D(22,2,3,4)          -163.6249         estimate D2E/DX2                !
 ! D10   D(22,2,3,13)           15.927          estimate D2E/DX2                !
 ! D11   D(1,2,22,23)            0.3283         estimate D2E/DX2                !
 ! D12   D(3,2,22,23)          179.7275         estimate D2E/DX2                !
 ! D13   D(2,3,4,5)           -117.5964         estimate D2E/DX2                !
 ! D14   D(2,3,4,11)            62.1304         estimate D2E/DX2                !
 ! D15   D(13,3,4,5)            62.8421         estimate D2E/DX2                !
 ! D16   D(13,3,4,11)         -117.4312         estimate D2E/DX2                !
 ! D17   D(2,3,13,14)         -140.2881         estimate D2E/DX2                !
 ! D18   D(2,3,13,20)           39.2549         estimate D2E/DX2                !
 ! D19   D(4,3,13,14)           39.2682         estimate D2E/DX2                !
 ! D20   D(4,3,13,20)         -141.1889         estimate D2E/DX2                !
 ! D21   D(3,4,5,6)             -0.1461         estimate D2E/DX2                !
 ! D22   D(3,4,5,7)            179.516          estimate D2E/DX2                !
 ! D23   D(11,4,5,6)          -179.8717         estimate D2E/DX2                !
 ! D24   D(11,4,5,7)            -0.2096         estimate D2E/DX2                !
 ! D25   D(3,4,11,10)         -179.072          estimate D2E/DX2                !
 ! D26   D(3,4,11,12)            3.4052         estimate D2E/DX2                !
 ! D27   D(5,4,11,10)            0.6542         estimate D2E/DX2                !
 ! D28   D(5,4,11,12)         -176.8686         estimate D2E/DX2                !
 ! D29   D(4,5,6,27)           -73.6205         estimate D2E/DX2                !
 ! D30   D(4,5,6,28)           166.2127         estimate D2E/DX2                !
 ! D31   D(4,5,6,29)            48.1209         estimate D2E/DX2                !
 ! D32   D(7,5,6,27)           106.725          estimate D2E/DX2                !
 ! D33   D(7,5,6,28)           -13.4417         estimate D2E/DX2                !
 ! D34   D(7,5,6,29)          -131.5336         estimate D2E/DX2                !
 ! D35   D(4,5,7,8)             -2.0751         estimate D2E/DX2                !
 ! D36   D(4,5,7,30)          -179.8213         estimate D2E/DX2                !
 ! D37   D(6,5,7,8)            177.5907         estimate D2E/DX2                !
 ! D38   D(6,5,7,30)            -0.1555         estimate D2E/DX2                !
 ! D39   D(5,7,8,9)            179.0701         estimate D2E/DX2                !
 ! D40   D(5,7,8,10)             3.8102         estimate D2E/DX2                !
 ! D41   D(30,7,8,9)            -3.159          estimate D2E/DX2                !
 ! D42   D(30,7,8,10)         -178.4189         estimate D2E/DX2                !
 ! D43   D(7,8,9,31)            33.4704         estimate D2E/DX2                !
 ! D44   D(7,8,9,32)           -87.1325         estimate D2E/DX2                !
 ! D45   D(7,8,9,33)           152.7332         estimate D2E/DX2                !
 ! D46   D(10,8,9,31)         -151.297          estimate D2E/DX2                !
 ! D47   D(10,8,9,32)           88.1002         estimate D2E/DX2                !
 ! D48   D(10,8,9,33)          -32.0342         estimate D2E/DX2                !
 ! D49   D(7,8,10,11)           -3.2503         estimate D2E/DX2                !
 ! D50   D(7,8,10,34)          176.8667         estimate D2E/DX2                !
 ! D51   D(9,8,10,11)         -178.5802         estimate D2E/DX2                !
 ! D52   D(9,8,10,34)            1.5368         estimate D2E/DX2                !
 ! D53   D(8,10,11,4)            1.0802         estimate D2E/DX2                !
 ! D54   D(8,10,11,12)         178.7031         estimate D2E/DX2                !
 ! D55   D(34,10,11,4)        -179.0366         estimate D2E/DX2                !
 ! D56   D(34,10,11,12)         -1.4137         estimate D2E/DX2                !
 ! D57   D(4,11,12,35)         160.7596         estimate D2E/DX2                !
 ! D58   D(4,11,12,36)         -80.0639         estimate D2E/DX2                !
 ! D59   D(4,11,12,37)          42.8592         estimate D2E/DX2                !
 ! D60   D(10,11,12,35)        -16.771          estimate D2E/DX2                !
 ! D61   D(10,11,12,36)        102.4055         estimate D2E/DX2                !
 ! D62   D(10,11,12,37)       -134.6715         estimate D2E/DX2                !
 ! D63   D(3,13,14,15)           0.1471         estimate D2E/DX2                !
 ! D64   D(3,13,14,16)         179.8653         estimate D2E/DX2                !
 ! D65   D(20,13,14,15)       -179.3919         estimate D2E/DX2                !
 ! D66   D(20,13,14,16)          0.3263         estimate D2E/DX2                !
 ! D67   D(3,13,20,18)         179.4368         estimate D2E/DX2                !
 ! D68   D(3,13,20,21)           4.3867         estimate D2E/DX2                !
 ! D69   D(14,13,20,18)         -1.0226         estimate D2E/DX2                !
 ! D70   D(14,13,20,21)       -176.0727         estimate D2E/DX2                !
 ! D71   D(13,14,16,17)          0.7399         estimate D2E/DX2                !
 ! D72   D(13,14,16,38)       -179.5795         estimate D2E/DX2                !
 ! D73   D(15,14,16,17)       -179.5303         estimate D2E/DX2                !
 ! D74   D(15,14,16,38)          0.1503         estimate D2E/DX2                !
 ! D75   D(14,16,17,18)         -1.0815         estimate D2E/DX2                !
 ! D76   D(14,16,17,39)        179.3694         estimate D2E/DX2                !
 ! D77   D(38,16,17,18)        179.2395         estimate D2E/DX2                !
 ! D78   D(38,16,17,39)         -0.3096         estimate D2E/DX2                !
 ! D79   D(16,17,18,19)        178.7018         estimate D2E/DX2                !
 ! D80   D(16,17,18,20)          0.3683         estimate D2E/DX2                !
 ! D81   D(39,17,18,19)         -1.7382         estimate D2E/DX2                !
 ! D82   D(39,17,18,20)        179.9283         estimate D2E/DX2                !
 ! D83   D(17,18,20,13)          0.6764         estimate D2E/DX2                !
 ! D84   D(17,18,20,21)        175.9164         estimate D2E/DX2                !
 ! D85   D(19,18,20,13)       -177.6837         estimate D2E/DX2                !
 ! D86   D(19,18,20,21)         -2.4437         estimate D2E/DX2                !
 ! D87   D(2,22,23,24)         179.3137         estimate D2E/DX2                !
 ! D88   D(2,22,23,25)           1.4065         estimate D2E/DX2                !
 ! D89   D(22,23,24,40)        159.1938         estimate D2E/DX2                !
 ! D90   D(22,23,24,41)         38.6436         estimate D2E/DX2                !
 ! D91   D(22,23,24,42)        -81.6134         estimate D2E/DX2                !
 ! D92   D(25,23,24,40)        -23.136          estimate D2E/DX2                !
 ! D93   D(25,23,24,41)       -143.6862         estimate D2E/DX2                !
 ! D94   D(25,23,24,42)         96.0568         estimate D2E/DX2                !
 ! D95   D(22,23,25,1)          -2.6562         estimate D2E/DX2                !
 ! D96   D(24,23,25,1)         179.4808         estimate D2E/DX2                !
 --------------------------------------------------------------------------------
 Trust Radius=3.00D-01 FncErr=1.00D-07 GrdErr=1.00D-06 EigMax=2.50D+02 EigMin=1.00D-04
 Number of steps in this run=    224 maximum allowed number of steps=    252.
 GradGradGradGradGradGradGradGradGradGradGradGradGradGradGradGradGradGrad

 Leave Link  103 at Thu Jan 23 18:21:55 2025, MaxMem=  3221225472 cpu:               0.5 elap:               0.0
 (Enter /software/gaussian/G16-C.01/avx2/g16/l202.exe)
                          Input orientation:                          
 ---------------------------------------------------------------------
 Center     Atomic      Atomic             Coordinates (Angstroms)
 Number     Number       Type             X           Y           Z
 ---------------------------------------------------------------------
      1          6           0       -0.232150    2.647495    0.870867
      2          6           0       -0.984903    1.503273    0.759421
      3          5           0       -0.542907    0.154691    0.098503
      4          6           0        0.989928   -0.119071   -0.190111
      5          6           0        1.444027   -0.303899   -1.536559
      6          6           0        0.495577   -0.247970   -2.696977
      7          6           0        2.795632   -0.531020   -1.745165
      8          6           0        3.722754   -0.545137   -0.722499
      9          6           0        5.170042   -0.815404   -0.994268
     10          6           0        3.279196   -0.400901    0.603619
     11          6           0        1.908902   -0.174536    0.885396
     12          6           0        1.482003   -0.056951    2.317936
     13          6           0       -1.626083   -0.978923   -0.289433
     14          6           0       -1.331446   -2.317098   -0.081943
     15          9           0       -0.153496   -2.719993    0.444427
     16          6           0       -2.278430   -3.306909   -0.418056
     17          6           0       -3.499009   -2.952709   -0.969936
     18          6           0       -3.804178   -1.593966   -1.175204
     19          9           0       -4.980487   -1.228377   -1.737189
     20          6           0       -2.872928   -0.596143   -0.829852
     21          9           0       -3.171027    0.695856   -1.121041
     22          7           0       -2.213582    1.727292    1.345408
     23          6           0       -2.115110    3.004872    1.765459
     24          6           0       -3.235787    3.710728    2.463491
     25          8           0       -0.957125    3.565984    1.457532
     26          1           0        0.781055    2.799843    0.502485
     27          1           0       -0.124397   -1.173598   -2.717747
     28          1           0        1.056782   -0.164238   -3.667447
     29          1           0       -0.160407    0.652667   -2.629323
     30          1           0        3.159750   -0.671444   -2.768992
     31          1           0        5.468471   -0.409898   -1.985419
     32          1           0        5.353579   -1.915307   -0.976664
     33          1           0        5.820496   -0.325674   -0.218814
     34          1           0        3.988526   -0.461137    1.414961
     35          1           0        2.269695   -0.464199    3.015484
     36          1           0        1.320208    1.020261    2.579061
     37          1           0        0.570616   -0.649726    2.502728
     38          1           0       -2.044015   -4.348269   -0.246931
     39          1           0       -4.225426   -3.694089   -1.240066
     40          1           0       -2.841396    4.574992    3.037896
     41          1           0       -3.744054    3.003846    3.153026
     42          1           0       -3.962654    4.088798    1.713275
 ---------------------------------------------------------------------
                    Distance matrix (angstroms):
                    1          2          3          4          5
     1  C    0.000000
     2  C    1.374155   0.000000
     3  B    2.628153   1.565518   0.000000
     4  C    3.205158   2.726457   1.583612   0.000000
     5  C    4.161249   3.799617   2.613740   1.432930   0.000000
     6  C    4.652184   4.147934   3.009201   2.558392   1.499751
     7  C    5.110190   4.970285   3.874939   2.418359   1.386339
     8  C    5.326630   5.343604   4.399962   2.816613   2.431767
     9  C    6.682371   6.806984   5.896865   4.313340   3.799856
    10  C    4.657649   4.672547   3.895163   2.439300   2.820925
    11  C    3.542340   3.347390   2.595950   1.415735   2.469557
    12  C    3.513738   3.308911   3.011799   2.556618   3.862584
    13  C    4.054658   2.769929   1.615192   2.755490   3.381798
    14  C    5.173344   3.927242   2.600788   3.198719   3.724531
    15  F    5.384976   4.315836   2.921492   2.911160   3.509116
    16  C    6.426782   5.118352   3.906604   4.571262   4.911803
    17  C    6.739675   5.400665   4.419959   5.365462   5.636564
    18  C    5.910650   4.613456   3.913569   5.111670   5.416503
    19  F    6.661160   5.446069   4.997476   6.266567   6.493788
    20  C    4.515235   3.240058   2.618128   3.944429   4.384169
    21  F    4.051369   2.994528   2.947399   4.341000   4.740346
    22  N    2.235629   1.379572   2.611322   4.003667   5.080313
    23  C    2.115078   2.131732   3.657061   4.819184   5.875266
    24  C    3.562128   3.583740   5.048779   6.290122   7.349714
    25  O    1.308964   2.177822   3.695329   4.481671   5.450331
    26  H    1.088806   2.205837   2.985449   3.007221   3.772327
    27  H    5.243139   4.471778   3.141778   2.956804   2.147448
    28  H    5.492129   5.152303   4.104035   3.478271   2.170287
    29  H    4.029369   3.589834   2.799165   2.805103   2.164107
    30  H    5.980712   5.861504   4.755491   3.415241   2.144221
    31  H    7.071287   7.269140   6.387343   4.833742   4.050785
    32  H    7.445328   7.407904   6.341090   4.783993   4.265527
    33  H    6.830935   7.114453   6.389393   4.835070   4.570603
    34  H    5.270079   5.387359   4.758801   3.418312   3.900086
    35  H    4.532246   4.421897   4.099089   3.468827   4.629095
    36  H    2.824116   2.976227   3.220803   3.012553   4.325166
    37  H    3.765511   3.177132   2.768992   2.776473   4.147082
    38  H    7.312526   6.031170   4.759128   5.205204   5.494225
    39  H    7.785755   6.442942   5.492342   6.409607   6.612411
    40  H    3.901208   4.251291   5.784647   6.865370   7.943177
    41  H    4.203416   3.948921   5.262617   6.583294   7.736250
    42  H    4.087011   4.057311   5.457045   6.771787   7.686962
                    6          7          8          9         10
     6  C    0.000000
     7  C    2.505257   0.000000
     8  C    3.794936   1.380434   0.000000
     9  C    5.007177   2.506500   1.497179   0.000000
    10  C    4.320400   2.401572   1.405752   2.510051   0.000000
    11  C    3.851788   2.798789   2.452087   3.818230   1.417161
    12  C    5.114574   4.296411   3.808351   5.014736   2.507406
    13  C    3.291201   4.676680   5.383844   6.834534   5.019304
    14  C    3.802329   4.794701   5.393988   6.734744   5.039824
    15  F    4.049766   4.275894   4.595328   5.834155   4.145709
    16  C    4.716535   5.934045   6.613191   7.875237   6.354204
    17  C    5.123963   6.788819   7.616528   8.928668   7.411603
    18  C    4.755564   6.709113   7.613126   9.009746   7.400122
    19  F    5.645323   7.807329   8.788789  10.186055   8.624759
    20  C    3.867067   5.742352   6.596753   8.047638   6.319936
    21  F    4.101020   6.123379   7.015919   8.477819   6.766292
    22  N    5.251865   6.304271   6.684330   8.152134   5.937177
    23  C    6.108192   6.995885   7.271394   8.676638   6.484420
    24  C    7.498320   8.490184   8.756953  10.153814   7.925252
    25  O    5.823790   6.412947   6.599631   7.921494   5.866154
    26  H    4.428004   4.495008   4.619856   5.879923   4.061490
    27  H    1.114265   3.144104   4.379104   5.579406   4.817985
    28  H    1.124177   2.617880   3.990640   4.948617   4.820491
    29  H    1.116262   3.304696   4.488836   5.765616   4.836609
    30  H    2.698579   1.095684   2.126279   2.685451   3.385553
    31  H    5.026152   2.686347   2.158884   1.111699   3.390593
    32  H    5.416611   3.008312   2.145124   1.115250   3.015591
    33  H    5.873848   3.394366   2.168498   1.124391   2.672127
    34  H    5.399459   3.378501   2.155557   2.706634   1.079376
    35  H    5.985520   4.790078   4.011291   4.961197   2.615376
    36  H    5.488624   4.825171   4.372985   5.564132   3.124053
    37  H    5.215742   4.796810   4.510988   5.780239   3.317369
    38  H    5.409686   6.343365   6.924277   8.067358   6.681446
    39  H    6.023802   7.717213   8.564890   9.829652   8.400214
    40  H    8.202751   8.984715   9.134789  10.464122   8.255112
    41  H    7.922835   8.902530   9.130619  10.547408   8.210835
    42  H    7.624545   8.886953   9.299023  10.713921   8.592620
                   11         12         13         14         15
    11  C    0.000000
    12  C    1.499413   0.000000
    13  C    3.810955   4.160361   0.000000
    14  C    4.003271   4.333957   1.385849   0.000000
    15  F    3.305645   3.643719   2.395493   1.351649   0.000000
    16  C    5.389295   5.673512   2.421079   1.410488   2.367212
    17  C    6.356572   6.633702   2.804776   2.427109   3.639647
    18  C    6.236997   6.519827   2.430425   2.798668   4.149532
    19  F    7.446624   7.718812   3.662001   4.152186   5.503109
    20  C    5.097620   5.400437   1.411805   2.428419   3.678292
    21  F    5.530737   5.834721   2.425553   3.679902   4.819150
    22  N    4.563270   4.217426   3.215814   4.378652   4.983379
    23  C    5.203443   4.755966   4.509141   5.687741   6.194121
    24  C    6.637280   6.039382   5.671205   6.814722   7.411566
    25  O    4.746888   4.451438   4.914832   6.092681   6.417610
    26  H    3.203997   3.456655   4.549783   5.566625   5.598692
    27  H    4.256180   5.402362   2.861759   3.116411   3.520160
    28  H    4.631910   6.001427   4.390041   4.816044   4.990407
    29  H    4.161677   5.260840   3.207083   4.084114   4.563203
    30  H    3.894367   5.391593   5.398792   5.486279   5.049774
    31  H    4.579028   5.876679   7.316615   7.314336   6.545778
    32  H    4.285248   5.412669   7.075648   6.756592   5.744119
    33  H    4.067271   5.032875   7.475511   7.425280   6.470026
    34  H    2.165044   2.694696   5.890407   5.829873   4.816712
    35  H    2.179759   1.128222   5.134638   5.098579   4.191754
    36  H    2.154670   1.120156   4.572266   5.024955   4.551699
    37  H    2.152343   1.102796   3.567915   3.616420   3.007814
    38  H    5.858990   6.117741   3.395433   2.158849   2.589077
    39  H    7.384769   7.646103   3.877165   3.407707   4.512980
    40  H    7.053836   6.376913   6.587418   7.714549   8.195590
    41  H    6.870238   6.113716   5.674396   6.678185   7.279488
    42  H    7.303188   6.870016   5.928928   7.154129   7.904384
                   16         17         18         19         20
    16  C    0.000000
    17  C    1.385583   0.000000
    18  C    2.415648   1.407638   0.000000
    19  F    3.655341   2.399328   1.353952   0.000000
    20  C    2.805576   2.442336   1.407887   2.380081   0.000000
    21  F    4.160895   3.666393   2.376363   2.712279   1.357541
    22  N    5.334529   5.377319   4.462537   5.088630   3.250361
    23  C    6.680793   6.700026   5.713998   6.196720   4.503026
    24  C    7.646377   7.500607   6.457782   6.714496   5.433867
    25  O    7.245712   7.405886   6.454618   7.027061   5.121106
    26  H    6.892044   7.319756   6.568452   7.378216   5.163278
    27  H    3.805188   4.196199   4.012098   4.954402   3.384084
    28  H    5.617701   5.983926   5.646621   6.427045   4.866324
    29  H    5.005395   5.186383   4.520939   5.250467   3.486459
    30  H    6.484318   7.264973   7.203297   8.224247   6.337124
    31  H    8.418063   9.376182   9.382989  10.483904   8.423120
    32  H    7.777929   8.913168   9.165544  10.384758   8.332897
    33  H    8.632501   9.711780   9.754876  10.944477   8.719068
    34  H    7.122718   8.243716   8.289662   9.537709   7.220593
    35  H    6.368331   7.440040   7.465264   8.702701   6.422662
    36  H    6.376308   7.183642   6.869353   7.961478   5.640552
    37  H    4.869154   5.824515   5.792892   7.009028   4.792385
    38  H    1.081047   2.141805   3.397947   4.536239   3.886559
    39  H    2.148581   1.072518   2.142935   2.626210   3.405112
    40  H    8.624669   8.553448   7.532145   7.813850   6.457640
    41  H    7.397723   7.248408   6.314829   6.584428   5.438943
    42  H    7.878811   7.549663   6.376694   6.419816   5.440925
                   21         22         23         24         25
    21  F    0.000000
    22  N    2.839707   0.000000
    23  C    3.844269   1.348462   0.000000
    24  C    4.684284   2.495802   1.497130   0.000000
    25  O    4.448374   2.229808   1.323101   2.495036   0.000000
    26  H    4.762515   3.290705   3.166214   4.561828   2.126113
    27  H    3.914879   5.411939   6.443732   7.770625   6.371030
    28  H    5.009821   6.277092   7.044191   8.427925   6.650999
    29  H    3.367582   4.600960   5.354236   6.689279   5.081787
    30  H    6.683112   7.180175   7.867699   9.353353   7.264156
    31  H    8.752757   8.641523   9.123620  10.608320   8.303603
    32  H    8.916722   8.713351   9.354610  10.828858   8.706024
    33  H    9.094230   8.438476   8.831972  10.271493   7.993203
    34  H    7.683042   6.577249   7.027833   8.408007   6.378008
    35  H    6.932389   5.262277   5.729182   6.931453   5.392769
    36  H    5.828137   3.809129   4.049943   5.292358   3.595105
    37  H    5.379794   3.839448   4.594865   5.788247   4.604199
    38  H    5.241891   6.283052   7.623874   8.585694   8.168349
    39  H    4.516364   6.334316   7.639548   8.338287   8.406395
    40  H    5.696763   3.371655   2.147525   1.110152   2.658218
    41  H    4.891097   2.690616   2.139813   1.110619   3.310237
    42  H    4.491333   2.961635   2.142670   1.110899   3.061362
                   26         27         28         29         30
    26  H    0.000000
    27  H    5.194032   0.000000
    28  H    5.123489   1.820967   0.000000
    29  H    3.912152   1.828759   1.796270   0.000000
    30  H    5.330158   3.322711   2.342424   3.577180   0.000000
    31  H    6.201933   5.692075   4.727850   5.764367   2.452058
    32  H    6.732645   5.795665   5.363676   6.303159   3.093950
    33  H    5.973701   6.504260   5.883205   6.522186   3.701694
    34  H    4.664169   5.873926   5.874873   5.900037   4.270429
    35  H    4.380090   6.253388   6.798728   6.246330   5.856220
    36  H    2.787430   5.912366   6.363276   5.427210   5.903173
    37  H    3.993093   5.292527   6.208310   5.344958   5.873255
    38  H    7.722574   4.457398   6.230649   5.850909   6.852664
    39  H    8.382869   5.035360   6.801010   6.111358   8.124950
    40  H    4.764621   8.576467   9.089429   7.395249   9.861987
    41  H    5.248199   8.063431   8.922087   7.197647   9.810227
    42  H    5.062626   7.877751   8.499130   6.717308   9.668466
                   31         32         33         34         35
    31  H    0.000000
    32  H    1.815776   0.000000
    33  H    1.803305   1.821889   0.000000
    34  H    3.708833   3.114137   2.458390   0.000000
    35  H    5.936678   5.249124   4.805004   2.348631   0.000000
    36  H    6.331502   6.126078   5.467380   3.266434   1.815382
    37  H    6.647553   6.048521   5.922250   3.591785   1.784435
    38  H    8.658554   7.821523   8.833606   7.366358   6.658637
    39  H   10.262217   9.746321  10.644704   9.217925   8.410023
    40  H   10.914976  11.198138  10.471441   8.639696   7.177548
    41  H   11.087284  11.136397  10.674063   8.649842   6.943445
    42  H   11.084435  11.405141  10.905528   9.165814   7.827368
                   36         37         38         39         40
    36  H    0.000000
    37  H    1.832095   0.000000
    38  H    6.937242   5.298692   0.000000
    39  H    8.219785   6.802842   2.484516   0.000000
    40  H    5.492321   6.263059   9.542038   9.412449   0.000000
    41  H    5.469076   5.691032   8.276680   8.024544   1.815639
    42  H    6.170423   6.605102   8.871734   8.328540   1.802284
                   41         42
    41  H    0.000000
    42  H    1.815982   0.000000
 Stoichiometry    C19H17BF3NO
 Framework group  C1[X(C19H17BF3NO)]
 Deg. of freedom   120
 Full point group                 C1      NOp   1
 Largest Abelian subgroup         C1      NOp   1
 Largest concise Abelian subgroup C1      NOp   1
                         Standard orientation:                         
 ---------------------------------------------------------------------
 Center     Atomic      Atomic             Coordinates (Angstroms)
 Number     Number       Type             X           Y           Z
 ---------------------------------------------------------------------
      1          6           0       -0.089542    2.822109   -0.546332
      2          6           0       -0.695105    1.685735   -0.066491
      3          5           0       -0.059771    0.258227    0.030567
      4          6           0        1.508966    0.081091   -0.093972
      5          6           0        2.060540   -0.685304   -1.171791
      6          6           0        1.182478   -1.336657   -2.198435
      7          6           0        3.439413   -0.806503   -1.248966
      8          6           0        4.299593   -0.190307   -0.362404
      9          6           0        5.782118   -0.367309   -0.473473
     10          6           0        3.764429    0.532542    0.717979
     11          6           0        2.362784    0.686901    0.859074
     12          6           0        1.840954    1.441788    2.044856
     13          6           0       -0.977765   -1.049368    0.267902
     14          6           0       -0.541169   -2.056924    1.113356
     15          9           0        0.642617   -1.987599    1.762048
     16          6           0       -1.344068   -3.197511    1.322856
     17          6           0       -2.562896   -3.326876    0.676665
     18          6           0       -3.012475   -2.301940   -0.177052
     19          9           0       -4.188153   -2.420730   -0.838003
     20          6           0       -2.226660   -1.151958   -0.382430
     21          9           0       -2.656319   -0.225982   -1.277348
     22          7           0       -1.974105    2.007395    0.338371
     23          6           0       -2.051063    3.325429    0.064123
     24          6           0       -3.286091    4.130492    0.324853
     25          8           0       -0.950612    3.806432   -0.491069
     26          1           0        0.918860    2.903196   -0.948886
     27          1           0        0.677559   -2.222998   -1.750058
     28          1           0        1.786493   -1.672102   -3.085236
     29          1           0        0.422634   -0.615811   -2.584517
     30          1           0        3.877473   -1.386694   -2.068726
     31          1           0        6.089153   -0.471165   -1.536872
     32          1           0        6.091903   -1.278937    0.089333
     33          1           0        6.323628    0.522732   -0.050568
     34          1           0        4.426622    0.975867    1.446001
     35          1           0        2.628231    1.541040    2.846870
     36          1           0        1.538872    2.474905    1.734753
     37          1           0        0.995969    0.904906    2.507367
     38          1           0       -0.999798   -3.976125    1.989116
     39          1           0       -3.180156   -4.192539    0.817780
     40          1           0       -3.030404    5.208923    0.388481
     41          1           0       -3.747970    3.798604    1.278788
     42          1           0       -4.006530    3.988060   -0.508680
 ---------------------------------------------------------------------
 Rotational constants (GHZ):           0.2648799           0.1843588           0.1295242
 Leave Link  202 at Thu Jan 23 18:21:55 2025, MaxMem=  3221225472 cpu:               1.0 elap:               0.0
 (Enter /software/gaussian/G16-C.01/avx2/g16/l301.exe)
 Standard basis: def2SVP (5D, 7F)
 Ernie: Thresh=  0.10000D-02 Tol=  0.10000D-05 Strict=F.
 There are   460 symmetry adapted cartesian basis functions of A   symmetry.
 There are   435 symmetry adapted basis functions of A   symmetry.
   435 basis functions,   744 primitive gaussians,   460 cartesian basis functions
    89 alpha electrons       89 beta electrons
       nuclear repulsion energy      2159.1240833617 Hartrees.
 IExCor= 1009 DFT=T Ex+Corr=PBE1PBE ExCW=0 ScaHFX=  0.250000
 ScaDFX=  0.750000  0.750000  1.000000  1.000000 ScalE2=  1.000000  1.000000
 IRadAn=      5 IRanWt=     -1 IRanGd=            0 ICorTp=0 IEmpDi=141
 NAtoms=   42 NActive=   42 NUniq=   42 SFac= 1.00D+00 NAtFMM=   60 NAOKFM=F Big=F
 Integral buffers will be    131072 words long.
 Raffenetti 2 integral format.
 Two-electron integral symmetry is turned on.
 R6Disp:  Grimme-D3(BJ) Dispersion energy=       -0.0498278802 Hartrees.
 Nuclear repulsion after empirical dispersion term =     2159.0742554814 Hartrees.
 Leave Link  301 at Thu Jan 23 18:21:55 2025, MaxMem=  3221225472 cpu:               1.1 elap:               0.0
 (Enter /software/gaussian/G16-C.01/avx2/g16/l302.exe)
 NPDir=0 NMtPBC=     1 NCelOv=     1 NCel=       1 NClECP=     1 NCelD=      1
         NCelK=      1 NCelE2=     1 NClLst=     1 CellRange=     0.0.
 One-electron integrals computed using PRISM.
 One-electron integral symmetry used in STVInt
   1 Symmetry operations used in ECPInt.
 ECPInt:  NShTT=   20301 NPrTT=   74681 LenC2=   17973 LenP2D=   44586.
 LDataN:  DoStor=T MaxTD1= 4 Len=   56
 NBasis=   435 RedAO= T EigKep=  1.96D-04  NBF=   435
 NBsUse=   435 1.00D-06 EigRej= -1.00D+00 NBFU=   435
 Precomputing XC quadrature grid using
 IXCGrd= 4 IRadAn=           5 IRanWt=          -1 IRanGd=           0 AccXCQ= 0.00D+00.
 Generated NRdTot=       0 NPtTot=           0 NUsed=           0 NTot=          32
 NSgBfM=   457   457   457   457   457 MxSgAt=    42 MxSgA2=    42.
 Leave Link  302 at Thu Jan 23 18:21:56 2025, MaxMem=  3221225472 cpu:              11.6 elap:               0.5
 (Enter /software/gaussian/G16-C.01/avx2/g16/l303.exe)
 DipDrv:  MaxL=1.
 Leave Link  303 at Thu Jan 23 18:21:56 2025, MaxMem=  3221225472 cpu:               2.2 elap:               0.1
 (Enter /software/gaussian/G16-C.01/avx2/g16/l401.exe)
 ExpMin= 8.36D-02 ExpMax= 2.89D+03 ExpMxC= 4.35D+02 IAcc=3 IRadAn=         5 AccDes= 0.00D+00
 Harris functional with IExCor= 1009 and IRadAn=       5 diagonalized for initial guess.
 HarFok:  IExCor= 1009 AccDes= 0.00D+00 IRadAn=         5 IDoV= 1 UseB2=F ITyADJ=14
 ICtDFT=  3500011 ScaDFX=  1.000000  1.000000  1.000000  1.000000
 FoFCou: FMM=F IPFlag=           0 FMFlag=      100000 FMFlg1=           0
         NFxFlg=           0 DoJE=T BraDBF=F KetDBF=T FulRan=T
         wScrn=  0.000000 ICntrl=       500 IOpCl=  0 I1Cent=   200000004 NGrid=           0
         NMat0=    1 NMatS0=      1 NMatT0=    0 NMatD0=    1 NMtDS0=    0 NMtDT0=    0
 Petite list used in FoFCou.
 Harris En= -1186.68381072098    
 JPrj=0 DoOrth=F DoCkMO=F.
 Leave Link  401 at Thu Jan 23 18:21:57 2025, MaxMem=  3221225472 cpu:              28.7 elap:               1.2
 (Enter /software/gaussian/G16-C.01/avx2/g16/l502.exe)
 Integral symmetry usage will be decided dynamically.
 Closed shell SCF:
 Using DIIS extrapolation, IDIIS=  1040.
 NGot=  3221225472 LenX=  3220785402 LenY=  3220573342
 Requested convergence on RMS density matrix=1.00D-08 within 128 cycles.
 Requested convergence on MAX density matrix=1.00D-06.
 Requested convergence on             energy=1.00D-06.
 No special actions if energy rises.
 Fock matrices will be formed incrementally for  20 cycles.
 Integral accuracy reduced to 1.0D-05 until final iterations.

 Cycle   1  Pass 0  IDiag  1:
 FoFJK:  IHMeth= 1 ICntrl=       0 DoSepK=F KAlg= 0 I1Cent=           0 FoldK=F
 IRaf= 810000000 NMat=       1 IRICut=       1 DoRegI=T DoRafI=F ISym2E= 0 IDoP0=0 IntGTp=1.
 FoFCou: FMM=F IPFlag=           0 FMFlag=      100000 FMFlg1=           0
         NFxFlg=           0 DoJE=F BraDBF=F KetDBF=F FulRan=T
         wScrn=  0.000000 ICntrl=         0 IOpCl=  0 I1Cent=           0 NGrid=           0
         NMat0=    1 NMatS0=      1 NMatT0=    0 NMatD0=    1 NMtDS0=    0 NMtDT0=    0
 Symmetry not used in FoFCou.
 E= -1186.01803944859    
 DIIS: error= 1.86D-02 at cycle   1 NSaved=   1.
 NSaved= 1 IEnMin= 1 EnMin= -1186.01803944859     IErMin= 1 ErrMin= 1.86D-02
 ErrMax= 1.86D-02  0.00D+00 EMaxC= 1.00D-01 BMatC= 4.11D-01 BMatP= 4.11D-01
 IDIUse=3 WtCom= 8.14D-01 WtEn= 1.86D-01
 Coeff-Com:  0.100D+01
 Coeff-En:   0.100D+01
 Coeff:      0.100D+01
 Gap=     0.225 Goal=   None    Shift=    0.000
 GapD=    0.225 DampG=1.000 DampE=0.500 DampFc=0.5000 IDamp=-1.
 Damping current iteration by 5.00D-01
 RMSDP=3.95D-03 MaxDP=1.31D-01              OVMax= 2.11D-01

 Cycle   2  Pass 0  IDiag  1:
 RMSU=  1.91D-03    CP:  9.72D-01
 E= -1186.21304517949     Delta-E=       -0.195005730898 Rises=F Damp=T
 DIIS: error= 9.11D-03 at cycle   2 NSaved=   2.
 NSaved= 2 IEnMin= 2 EnMin= -1186.21304517949     IErMin= 2 ErrMin= 9.11D-03
 ErrMax= 9.11D-03  0.00D+00 EMaxC= 1.00D-01 BMatC= 3.28D-02 BMatP= 4.11D-01
 IDIUse=3 WtCom= 9.09D-01 WtEn= 9.11D-02
 Coeff-Com:  0.694D-01 0.931D+00
 Coeff-En:   0.117D+00 0.883D+00
 Coeff:      0.737D-01 0.926D+00
 Gap=     0.181 Goal=   None    Shift=    0.000
 RMSDP=1.45D-03 MaxDP=4.51D-02 DE=-1.95D-01 OVMax= 1.68D-01

 Cycle   3  Pass 0  IDiag  1:
 RMSU=  1.42D-03    CP:  9.54D-01  1.00D+00
 E= -1186.42546109036     Delta-E=       -0.212415910869 Rises=F Damp=F
 DIIS: error= 1.58D-02 at cycle   3 NSaved=   3.
 NSaved= 3 IEnMin= 3 EnMin= -1186.42546109036     IErMin= 2 ErrMin= 9.11D-03
 ErrMax= 1.58D-02  0.00D+00 EMaxC= 1.00D-01 BMatC= 4.33D-02 BMatP= 3.28D-02
 IDIUse=2 WtCom= 0.00D+00 WtEn= 1.00D+00
 Coeff-En:   0.000D+00 0.000D+00 0.100D+01
 Coeff:      0.000D+00 0.000D+00 0.100D+01
 Gap=     0.180 Goal=   None    Shift=    0.000
 RMSDP=1.47D-03 MaxDP=8.92D-02 DE=-2.12D-01 OVMax= 2.04D-01

 Cycle   4  Pass 0  IDiag  1:
 RMSU=  1.06D-03    CP:  9.55D-01  1.27D+00  3.72D-01
 E= -1186.28282805635     Delta-E=        0.142633034003 Rises=F Damp=F
 DIIS: error= 3.59D-02 at cycle   4 NSaved=   4.
 NSaved= 4 IEnMin= 3 EnMin= -1186.42546109036     IErMin= 2 ErrMin= 9.11D-03
 ErrMax= 3.59D-02  0.00D+00 EMaxC= 1.00D-01 BMatC= 1.94D-01 BMatP= 3.28D-02
 IDIUse=2 WtCom= 0.00D+00 WtEn= 1.00D+00
 Coeff-En:   0.000D+00 0.000D+00 0.765D+00 0.235D+00
 Coeff:      0.000D+00 0.000D+00 0.765D+00 0.235D+00
 Gap=     0.174 Goal=   None    Shift=    0.000
 RMSDP=7.75D-04 MaxDP=4.57D-02 DE= 1.43D-01 OVMax= 9.09D-02

 Cycle   5  Pass 0  IDiag  1:
 RMSU=  1.65D-04    CP:  9.54D-01  1.11D+00  6.94D-01  5.01D-01
 E= -1186.45522722738     Delta-E=       -0.172399171031 Rises=F Damp=F
 DIIS: error= 8.71D-03 at cycle   5 NSaved=   5.
 NSaved= 5 IEnMin= 5 EnMin= -1186.45522722738     IErMin= 5 ErrMin= 8.71D-03
 ErrMax= 8.71D-03  0.00D+00 EMaxC= 1.00D-01 BMatC= 1.24D-02 BMatP= 3.28D-02
 IDIUse=3 WtCom= 9.13D-01 WtEn= 8.71D-02
 Coeff-Com:  0.368D-02 0.234D-02 0.332D+00-0.136D-01 0.676D+00
 Coeff-En:   0.000D+00 0.000D+00 0.270D+00 0.000D+00 0.730D+00
 Coeff:      0.336D-02 0.213D-02 0.327D+00-0.124D-01 0.680D+00
 Gap=     0.166 Goal=   None    Shift=    0.000
 RMSDP=2.67D-04 MaxDP=1.46D-02 DE=-1.72D-01 OVMax= 3.08D-02

 Cycle   6  Pass 0  IDiag  1:
 RMSU=  6.72D-05    CP:  9.54D-01  1.07D+00  8.06D-01  3.32D-01  7.10D-01
 E= -1186.46691989716     Delta-E=       -0.011692669773 Rises=F Damp=F
 DIIS: error= 6.18D-04 at cycle   6 NSaved=   6.
 NSaved= 6 IEnMin= 6 EnMin= -1186.46691989716     IErMin= 6 ErrMin= 6.18D-04
 ErrMax= 6.18D-04  0.00D+00 EMaxC= 1.00D-01 BMatC= 1.35D-04 BMatP= 1.24D-02
 IDIUse=3 WtCom= 9.94D-01 WtEn= 6.18D-03
 Coeff-Com: -0.748D-03 0.258D-03 0.111D+00-0.478D-01 0.406D+00 0.532D+00
 Coeff-En:   0.000D+00 0.000D+00 0.000D+00 0.000D+00 0.000D+00 0.100D+01
 Coeff:     -0.744D-03 0.256D-03 0.110D+00-0.475D-01 0.403D+00 0.535D+00
 Gap=     0.166 Goal=   None    Shift=    0.000
 RMSDP=3.68D-05 MaxDP=1.72D-03 DE=-1.17D-02 OVMax= 4.91D-03

 Cycle   7  Pass 0  IDiag  1:
 RMSU=  1.69D-05    CP:  9.54D-01  1.07D+00  8.05D-01  3.37D-01  8.08D-01
                    CP:  5.90D-01
 E= -1186.46707220251     Delta-E=       -0.000152305355 Rises=F Damp=F
 DIIS: error= 1.07D-04 at cycle   7 NSaved=   7.
 NSaved= 7 IEnMin= 7 EnMin= -1186.46707220251     IErMin= 7 ErrMin= 1.07D-04
 ErrMax= 1.07D-04  0.00D+00 EMaxC= 1.00D-01 BMatC= 7.58D-06 BMatP= 1.35D-04
 IDIUse=3 WtCom= 9.99D-01 WtEn= 1.07D-03
 Coeff-Com: -0.564D-03 0.279D-03 0.433D-01-0.271D-01 0.189D+00 0.296D+00
 Coeff-Com:  0.499D+00
 Coeff-En:   0.000D+00 0.000D+00 0.000D+00 0.000D+00 0.000D+00 0.000D+00
 Coeff-En:   0.100D+01
 Coeff:     -0.564D-03 0.279D-03 0.433D-01-0.271D-01 0.189D+00 0.296D+00
 Coeff:      0.499D+00
 Gap=     0.166 Goal=   None    Shift=    0.000
 RMSDP=8.11D-06 MaxDP=4.85D-04 DE=-1.52D-04 OVMax= 9.22D-04

 Initial convergence to 1.0D-05 achieved.  Increase integral accuracy.
 Cycle   8  Pass 1  IDiag  1:
 E= -1186.46705135551     Delta-E=        0.000020847001 Rises=F Damp=F
 DIIS: error= 9.79D-05 at cycle   1 NSaved=   1.
 NSaved= 1 IEnMin= 1 EnMin= -1186.46705135551     IErMin= 1 ErrMin= 9.79D-05
 ErrMax= 9.79D-05  0.00D+00 EMaxC= 1.00D-01 BMatC= 4.08D-06 BMatP= 4.08D-06
 IDIUse=1 WtCom= 1.00D+00 WtEn= 0.00D+00
 Coeff-Com:  0.100D+01
 Coeff:      0.100D+01
 Gap=     0.166 Goal=   None    Shift=    0.000
 RMSDP=8.11D-06 MaxDP=4.85D-04 DE= 2.08D-05 OVMax= 4.12D-04

 Cycle   9  Pass 1  IDiag  1:
 RMSU=  9.77D-05    CP:  1.00D+00
 E= -1186.46705420135     Delta-E=       -0.000002845840 Rises=F Damp=F
 DIIS: error= 5.38D-05 at cycle   2 NSaved=   2.
 NSaved= 2 IEnMin= 2 EnMin= -1186.46705420135     IErMin= 2 ErrMin= 5.38D-05
 ErrMax= 5.38D-05  0.00D+00 EMaxC= 1.00D-01 BMatC= 1.17D-06 BMatP= 4.08D-06
 IDIUse=1 WtCom= 1.00D+00 WtEn= 0.00D+00
 Coeff-Com:  0.273D+00 0.727D+00
 Coeff:      0.273D+00 0.727D+00
 Gap=     0.166 Goal=   None    Shift=    0.000
 RMSDP=6.69D-06 MaxDP=2.49D-04 DE=-2.85D-06 OVMax= 5.53D-04

 Cycle  10  Pass 1  IDiag  1:
 RMSU=  6.67D-06    CP:  1.00D+00  1.00D+00
 E= -1186.46705364489     Delta-E=        0.000000556462 Rises=F Damp=F
 DIIS: error= 7.87D-05 at cycle   3 NSaved=   3.
 NSaved= 3 IEnMin= 2 EnMin= -1186.46705420135     IErMin= 2 ErrMin= 5.38D-05
 ErrMax= 7.87D-05  0.00D+00 EMaxC= 1.00D-01 BMatC= 1.74D-06 BMatP= 1.17D-06
 IDIUse=1 WtCom= 1.00D+00 WtEn= 0.00D+00
 Coeff-Com:  0.521D-02 0.548D+00 0.447D+00
 Coeff:      0.521D-02 0.548D+00 0.447D+00
 Gap=     0.166 Goal=   None    Shift=    0.000
 RMSDP=3.76D-06 MaxDP=1.42D-04 DE= 5.56D-07 OVMax= 3.37D-04

 Cycle  11  Pass 1  IDiag  1:
 RMSU=  9.64D-07    CP:  1.00D+00  1.01D+00  4.66D-01
 E= -1186.46705537642     Delta-E=       -0.000001731527 Rises=F Damp=F
 DIIS: error= 1.09D-05 at cycle   4 NSaved=   4.
 NSaved= 4 IEnMin= 4 EnMin= -1186.46705537642     IErMin= 4 ErrMin= 1.09D-05
 ErrMax= 1.09D-05  0.00D+00 EMaxC= 1.00D-01 BMatC= 5.05D-08 BMatP= 1.17D-06
 IDIUse=1 WtCom= 1.00D+00 WtEn= 0.00D+00
 Coeff-Com: -0.479D-02 0.330D+00 0.283D+00 0.392D+00
 Coeff:     -0.479D-02 0.330D+00 0.283D+00 0.392D+00
 Gap=     0.166 Goal=   None    Shift=    0.000
 RMSDP=5.74D-07 MaxDP=2.66D-05 DE=-1.73D-06 OVMax= 5.93D-05

 Cycle  12  Pass 1  IDiag  1:
 RMSU=  2.82D-07    CP:  1.00D+00  1.01D+00  4.72D-01  4.87D-01
 E= -1186.46705542590     Delta-E=       -0.000000049483 Rises=F Damp=F
 DIIS: error= 8.74D-07 at cycle   5 NSaved=   5.
 NSaved= 5 IEnMin= 5 EnMin= -1186.46705542590     IErMin= 5 ErrMin= 8.74D-07
 ErrMax= 8.74D-07  0.00D+00 EMaxC= 1.00D-01 BMatC= 4.85D-10 BMatP= 5.05D-08
 IDIUse=1 WtCom= 1.00D+00 WtEn= 0.00D+00
 Coeff-Com: -0.237D-02 0.139D+00 0.117D+00 0.178D+00 0.569D+00
 Coeff:     -0.237D-02 0.139D+00 0.117D+00 0.178D+00 0.569D+00
 Gap=     0.166 Goal=   None    Shift=    0.000
 RMSDP=8.38D-08 MaxDP=4.53D-06 DE=-4.95D-08 OVMax= 7.73D-06

 Cycle  13  Pass 1  IDiag  1:
 RMSU=  7.50D-08    CP:  1.00D+00  1.01D+00  4.70D-01  5.16D-01  9.40D-01
 E= -1186.46705542641     Delta-E=       -0.000000000507 Rises=F Damp=F
 DIIS: error= 2.65D-07 at cycle   6 NSaved=   6.
 NSaved= 6 IEnMin= 6 EnMin= -1186.46705542641     IErMin= 6 ErrMin= 2.65D-07
 ErrMax= 2.65D-07  0.00D+00 EMaxC= 1.00D-01 BMatC= 6.38D-11 BMatP= 4.85D-10
 IDIUse=1 WtCom= 1.00D+00 WtEn= 0.00D+00
 Coeff-Com: -0.104D-03-0.296D-02-0.431D-02 0.333D-03 0.242D+00 0.765D+00
 Coeff:     -0.104D-03-0.296D-02-0.431D-02 0.333D-03 0.242D+00 0.765D+00
 Gap=     0.166 Goal=   None    Shift=    0.000
 RMSDP=4.05D-08 MaxDP=1.49D-06 DE=-5.07D-10 OVMax= 5.34D-06

 Cycle  14  Pass 1  IDiag  1:
 RMSU=  3.11D-08    CP:  1.00D+00  1.01D+00  4.68D-01  5.23D-01  1.02D+00
                    CP:  8.98D-01
 E= -1186.46705542647     Delta-E=       -0.000000000063 Rises=F Damp=F
 DIIS: error= 1.75D-07 at cycle   7 NSaved=   7.
 NSaved= 7 IEnMin= 7 EnMin= -1186.46705542647     IErMin= 7 ErrMin= 1.75D-07
 ErrMax= 1.75D-07  0.00D+00 EMaxC= 1.00D-01 BMatC= 2.24D-11 BMatP= 6.38D-11
 IDIUse=1 WtCom= 1.00D+00 WtEn= 0.00D+00
 Coeff-Com:  0.340D-03-0.256D-01-0.227D-01-0.309D-01 0.445D-01 0.463D+00
 Coeff-Com:  0.571D+00
 Coeff:      0.340D-03-0.256D-01-0.227D-01-0.309D-01 0.445D-01 0.463D+00
 Coeff:      0.571D+00
 Gap=     0.166 Goal=   None    Shift=    0.000
 RMSDP=1.78D-08 MaxDP=6.29D-07 DE=-6.32D-11 OVMax= 1.90D-06

 Cycle  15  Pass 1  IDiag  1:
 RMSU=  1.33D-08    CP:  1.00D+00  1.01D+00  4.69D-01  5.25D-01  1.03D+00
                    CP:  1.00D+00  8.05D-01
 E= -1186.46705542651     Delta-E=       -0.000000000035 Rises=F Damp=F
 DIIS: error= 4.65D-08 at cycle   8 NSaved=   8.
 NSaved= 8 IEnMin= 8 EnMin= -1186.46705542651     IErMin= 8 ErrMin= 4.65D-08
 ErrMax= 4.65D-08  0.00D+00 EMaxC= 1.00D-01 BMatC= 1.61D-12 BMatP= 2.24D-11
 IDIUse=1 WtCom= 1.00D+00 WtEn= 0.00D+00
 Coeff-Com:  0.187D-03-0.133D-01-0.116D-01-0.164D-01 0.587D-02 0.191D+00
 Coeff-Com:  0.308D+00 0.536D+00
 Coeff:      0.187D-03-0.133D-01-0.116D-01-0.164D-01 0.587D-02 0.191D+00
 Coeff:      0.308D+00 0.536D+00
 Gap=     0.166 Goal=   None    Shift=    0.000
 RMSDP=4.57D-09 MaxDP=1.62D-07 DE=-3.46D-11 OVMax= 4.68D-07

 SCF Done:  E(RPBE1PBE) =  -1186.46705543     A.U. after   15 cycles
            NFock= 15  Conv=0.46D-08     -V/T= 2.0094
 KE= 1.175380258299D+03 PE=-7.089665463666D+03 EE= 2.568743894459D+03
 Leave Link  502 at Thu Jan 23 18:22:36 2025, MaxMem=  3221225472 cpu:             938.6 elap:              39.1
 (Enter /software/gaussian/G16-C.01/avx2/g16/l601.exe)
 Copying SCF densities to generalized density rwf, IOpCl= 0 IROHF=0.

 **********************************************************************

            Population analysis using the SCF Density.

 **********************************************************************

 Orbital symmetries:
       Occupied  (A) (A) (A) (A) (A) (A) (A) (A) (A) (A) (A) (A)
                 (A) (A) (A) (A) (A) (A) (A) (A) (A) (A) (A) (A)
                 (A) (A) (A) (A) (A) (A) (A) (A) (A) (A) (A) (A)
                 (A) (A) (A) (A) (A) (A) (A) (A) (A) (A) (A) (A)
                 (A) (A) (A) (A) (A) (A) (A) (A) (A) (A) (A) (A)
                 (A) (A) (A) (A) (A) (A) (A) (A) (A) (A) (A) (A)
                 (A) (A) (A) (A) (A) (A) (A) (A) (A) (A) (A) (A)
                 (A) (A) (A) (A) (A)
       Virtual   (A) (A) (A) (A) (A) (A) (A) (A) (A) (A) (A) (A)
                 (A) (A) (A) (A) (A) (A) (A) (A) (A) (A) (A) (A)
                 (A) (A) (A) (A) (A) (A) (A) (A) (A) (A) (A) (A)
                 (A) (A) (A) (A) (A) (A) (A) (A) (A) (A) (A) (A)
                 (A) (A) (A) (A) (A) (A) (A) (A) (A) (A) (A) (A)
                 (A) (A) (A) (A) (A) (A) (A) (A) (A) (A) (A) (A)
                 (A) (A) (A) (A) (A) (A) (A) (A) (A) (A) (A) (A)
                 (A) (A) (A) (A) (A) (A) (A) (A) (A) (A) (A) (A)
                 (A) (A) (A) (A) (A) (A) (A) (A) (A) (A) (A) (A)
                 (A) (A) (A) (A) (A) (A) (A) (A) (A) (A) (A) (A)
                 (A) (A) (A) (A) (A) (A) (A) (A) (A) (A) (A) (A)
                 (A) (A) (A) (A) (A) (A) (A) (A) (A) (A) (A) (A)
                 (A) (A) (A) (A) (A) (A) (A) (A) (A) (A) (A) (A)
                 (A) (A) (A) (A) (A) (A) (A) (A) (A) (A) (A) (A)
                 (A) (A) (A) (A) (A) (A) (A) (A) (A) (A) (A) (A)
                 (A) (A) (A) (A) (A) (A) (A) (A) (A) (A) (A) (A)
                 (A) (A) (A) (A) (A) (A) (A) (A) (A) (A) (A) (A)
                 (A) (A) (A) (A) (A) (A) (A) (A) (A) (A) (A) (A)
                 (A) (A) (A) (A) (A) (A) (A) (A) (A) (A) (A) (A)
                 (A) (A) (A) (A) (A) (A) (A) (A) (A) (A) (A) (A)
                 (A) (A) (A) (A) (A) (A) (A) (A) (A) (A) (A) (A)
                 (A) (A) (A) (A) (A) (A) (A) (A) (A) (A) (A) (A)
                 (A) (A) (A) (A) (A) (A) (A) (A) (A) (A) (A) (A)
                 (A) (A) (A) (A) (A) (A) (A) (A) (A) (A) (A) (A)
                 (A) (A) (A) (A) (A) (A) (A) (A) (A) (A) (A) (A)
                 (A) (A) (A) (A) (A) (A) (A) (A) (A) (A) (A) (A)
                 (A) (A) (A) (A) (A) (A) (A) (A) (A) (A) (A) (A)
                 (A) (A) (A) (A) (A) (A) (A) (A) (A) (A) (A) (A)
                 (A) (A) (A) (A) (A) (A) (A) (A) (A) (A)
 The electronic state is 1-A.
 Alpha  occ. eigenvalues --  -24.79039 -24.79024 -24.78729 -19.31388 -14.38399
 Alpha  occ. eigenvalues --  -10.33884 -10.33451 -10.33101 -10.32800 -10.29871
 Alpha  occ. eigenvalues --  -10.26403 -10.25692 -10.25644 -10.24720 -10.24249
 Alpha  occ. eigenvalues --  -10.24192 -10.24121 -10.23660 -10.23429 -10.23413
 Alpha  occ. eigenvalues --  -10.23225 -10.22430 -10.22122 -10.21674  -6.79949
 Alpha  occ. eigenvalues --   -1.24447  -1.24119  -1.23045  -1.19616  -0.93228
 Alpha  occ. eigenvalues --   -0.89440  -0.87260  -0.81962  -0.79515  -0.79379
 Alpha  occ. eigenvalues --   -0.78448  -0.77166  -0.72732  -0.70820  -0.68937
 Alpha  occ. eigenvalues --   -0.68633  -0.66224  -0.65496  -0.64567  -0.59689
 Alpha  occ. eigenvalues --   -0.58402  -0.58119  -0.57618  -0.56064  -0.55533
 Alpha  occ. eigenvalues --   -0.55302  -0.52500  -0.52220  -0.50873  -0.50362
 Alpha  occ. eigenvalues --   -0.49167  -0.48487  -0.47292  -0.46983  -0.46613
 Alpha  occ. eigenvalues --   -0.45939  -0.44628  -0.44079  -0.43604  -0.43470
 Alpha  occ. eigenvalues --   -0.43156  -0.42521  -0.42443  -0.42144  -0.41106
 Alpha  occ. eigenvalues --   -0.40853  -0.40397  -0.40017  -0.39720  -0.39465
 Alpha  occ. eigenvalues --   -0.37598  -0.37118  -0.36495  -0.35946  -0.34321
 Alpha  occ. eigenvalues --   -0.33868  -0.33575  -0.31594  -0.29622  -0.28020
 Alpha  occ. eigenvalues --   -0.25792  -0.25470  -0.24526  -0.23801
 Alpha virt. eigenvalues --   -0.07164  -0.01479  -0.00417   0.00081   0.00470
 Alpha virt. eigenvalues --    0.01801   0.06524   0.07612   0.07965   0.08634
 Alpha virt. eigenvalues --    0.09039   0.10227   0.10509   0.11074   0.11714
 Alpha virt. eigenvalues --    0.12211   0.12590   0.13229   0.13697   0.14401
 Alpha virt. eigenvalues --    0.14460   0.14689   0.15013   0.16057   0.16376
 Alpha virt. eigenvalues --    0.17178   0.17999   0.18188   0.20180   0.21939
 Alpha virt. eigenvalues --    0.22245   0.22742   0.23632   0.24885   0.25623
 Alpha virt. eigenvalues --    0.26051   0.27476   0.27519   0.28396   0.29986
 Alpha virt. eigenvalues --    0.30335   0.31666   0.32134   0.33665   0.34479
 Alpha virt. eigenvalues --    0.34676   0.36019   0.36725   0.37554   0.38179
 Alpha virt. eigenvalues --    0.38836   0.39394   0.40315   0.41275   0.42215
 Alpha virt. eigenvalues --    0.43205   0.43615   0.44592   0.45193   0.45446
 Alpha virt. eigenvalues --    0.46331   0.46707   0.47115   0.47505   0.48403
 Alpha virt. eigenvalues --    0.49127   0.49694   0.50036   0.50883   0.51052
 Alpha virt. eigenvalues --    0.52169   0.52396   0.53865   0.54145   0.54593
 Alpha virt. eigenvalues --    0.55464   0.56303   0.56552   0.56954   0.58799
 Alpha virt. eigenvalues --    0.59115   0.59432   0.60213   0.60415   0.60890
 Alpha virt. eigenvalues --    0.61544   0.63558   0.64281   0.64381   0.64619
 Alpha virt. eigenvalues --    0.65199   0.65543   0.66389   0.66828   0.66897
 Alpha virt. eigenvalues --    0.67077   0.67659   0.67956   0.68167   0.68590
 Alpha virt. eigenvalues --    0.68952   0.69445   0.69888   0.70272   0.70820
 Alpha virt. eigenvalues --    0.71434   0.71941   0.72512   0.73058   0.73640
 Alpha virt. eigenvalues --    0.74189   0.74390   0.75048   0.75624   0.76213
 Alpha virt. eigenvalues --    0.76722   0.77104   0.77338   0.78354   0.79026
 Alpha virt. eigenvalues --    0.79197   0.79494   0.81525   0.82333   0.83803
 Alpha virt. eigenvalues --    0.84001   0.84491   0.84858   0.86361   0.88963
 Alpha virt. eigenvalues --    0.89761   0.92606   0.93832   0.94754   0.95353
 Alpha virt. eigenvalues --    0.97195   0.98894   1.00495   1.02603   1.03253
 Alpha virt. eigenvalues --    1.03421   1.04439   1.05581   1.07206   1.09786
 Alpha virt. eigenvalues --    1.10476   1.12990   1.14823   1.15801   1.17501
 Alpha virt. eigenvalues --    1.17869   1.18309   1.19336   1.19514   1.21336
 Alpha virt. eigenvalues --    1.22174   1.23064   1.24320   1.24663   1.26297
 Alpha virt. eigenvalues --    1.26788   1.26917   1.28061   1.29798   1.31015
 Alpha virt. eigenvalues --    1.32105   1.32386   1.33191   1.33653   1.35993
 Alpha virt. eigenvalues --    1.36708   1.39438   1.40426   1.45010   1.46292
 Alpha virt. eigenvalues --    1.46978   1.47176   1.48060   1.48257   1.50205
 Alpha virt. eigenvalues --    1.51297   1.52070   1.52667   1.52726   1.53700
 Alpha virt. eigenvalues --    1.54825   1.55448   1.55832   1.56291   1.56841
 Alpha virt. eigenvalues --    1.57187   1.57747   1.59967   1.61047   1.62176
 Alpha virt. eigenvalues --    1.63463   1.65285   1.66555   1.66910   1.67981
 Alpha virt. eigenvalues --    1.69473   1.70262   1.72023   1.72121   1.72397
 Alpha virt. eigenvalues --    1.72785   1.73511   1.73971   1.75258   1.75730
 Alpha virt. eigenvalues --    1.76251   1.76650   1.76979   1.77469   1.78925
 Alpha virt. eigenvalues --    1.80018   1.80875   1.81344   1.82084   1.82671
 Alpha virt. eigenvalues --    1.83562   1.83984   1.84154   1.85583   1.86224
 Alpha virt. eigenvalues --    1.86789   1.87616   1.88005   1.88825   1.90325
 Alpha virt. eigenvalues --    1.92713   1.92909   1.93830   1.94267   1.95235
 Alpha virt. eigenvalues --    1.95712   1.98915   2.00081   2.00893   2.01577
 Alpha virt. eigenvalues --    2.02535   2.04402   2.04930   2.05853   2.06899
 Alpha virt. eigenvalues --    2.07763   2.08257   2.08612   2.10458   2.11763
 Alpha virt. eigenvalues --    2.12085   2.12475   2.13260   2.14941   2.17226
 Alpha virt. eigenvalues --    2.18505   2.18894   2.21173   2.22017   2.22343
 Alpha virt. eigenvalues --    2.24096   2.24905   2.25758   2.26372   2.27268
 Alpha virt. eigenvalues --    2.27300   2.28020   2.29860   2.31383   2.32931
 Alpha virt. eigenvalues --    2.33549   2.36250   2.37756   2.38491   2.39765
 Alpha virt. eigenvalues --    2.40162   2.41981   2.42617   2.43273   2.43496
 Alpha virt. eigenvalues --    2.45530   2.49686   2.51361   2.52328   2.53789
 Alpha virt. eigenvalues --    2.54196   2.54689   2.57235   2.58905   2.60351
 Alpha virt. eigenvalues --    2.60545   2.61339   2.62019   2.64445   2.64846
 Alpha virt. eigenvalues --    2.66908   2.67290   2.67883   2.68633   2.71250
 Alpha virt. eigenvalues --    2.75006   2.75170   2.76252   2.84189   2.85547
 Alpha virt. eigenvalues --    2.86437   2.86512   2.88941   2.90451   2.90550
 Alpha virt. eigenvalues --    2.91326   2.92982   2.93539   2.94086   2.96140
 Alpha virt. eigenvalues --    2.96874   2.96983   2.99099   3.00462   3.01001
 Alpha virt. eigenvalues --    3.02228   3.03657   3.08152   3.08568   3.09424
 Alpha virt. eigenvalues --    3.10419   3.11548   3.12570   3.14371   3.17260
 Alpha virt. eigenvalues --    3.25273   3.25370   3.27051   3.27250   3.31453
 Alpha virt. eigenvalues --    3.34587   3.35945   3.39600   3.49772   3.49999
 Alpha virt. eigenvalues --    3.53117   3.64211   3.65125   3.78595   3.84923
 Alpha virt. eigenvalues --    3.96386
          Condensed to atoms (all electrons):
               1          2          3          4          5          6
     1  C    4.870657   0.489837  -0.027217   0.003149  -0.000461  -0.000014
     2  C    0.489837   4.964369   0.414157  -0.032227   0.001681  -0.001156
     3  B   -0.027217   0.414157   3.944435   0.409795  -0.045180  -0.011602
     4  C    0.003149  -0.032227   0.409795   5.321677   0.284439  -0.097696
     5  C   -0.000461   0.001681  -0.045180   0.284439   5.172605   0.426126
     6  C   -0.000014  -0.001156  -0.011602  -0.097696   0.426126   4.634963
     7  C   -0.000049  -0.000204   0.016451   0.036373   0.358792  -0.095798
     8  C    0.000016   0.000087  -0.002534  -0.120715   0.065040   0.014303
     9  C   -0.000000  -0.000000   0.000056  -0.000381   0.012198  -0.000274
    10  C   -0.000400  -0.000111   0.015483   0.039335  -0.119107  -0.001292
    11  C    0.001775  -0.012627  -0.061308   0.281589   0.076017   0.014777
    12  C   -0.003790   0.000028   0.002260  -0.098330   0.013895  -0.000087
    13  C    0.003150  -0.023284   0.257577  -0.014899  -0.011567   0.010668
    14  C   -0.000212   0.002168  -0.045205  -0.004574   0.000493  -0.001678
    15  F    0.000000   0.000059   0.031711  -0.008041   0.000056  -0.000680
    16  C    0.000007  -0.000245   0.015825  -0.000725  -0.000466  -0.000200
    17  C   -0.000000   0.000039  -0.001506   0.000104  -0.000001   0.000037
    18  C   -0.000029   0.000293   0.015211  -0.000369   0.000008  -0.000049
    19  F   -0.000000   0.000001  -0.000245  -0.000000   0.000000  -0.000001
    20  C    0.000127  -0.002598  -0.027294   0.004251   0.000408  -0.001201
    21  F   -0.000953  -0.000123   0.026648  -0.000039   0.000084  -0.000553
    22  N   -0.059458   0.357827  -0.012462   0.002079  -0.000074   0.000001
    23  C   -0.159793  -0.079239   0.004909  -0.000155   0.000012   0.000001
    24  C    0.004342   0.015347  -0.001743   0.000004   0.000000  -0.000000
    25  O    0.366239  -0.076229   0.004410   0.000163   0.000005   0.000001
    26  H    0.400819  -0.029999  -0.000728   0.002656  -0.000162  -0.000094
    27  H    0.000009   0.000057   0.011755  -0.008543  -0.010944   0.371566
    28  H   -0.000001   0.000014  -0.003247   0.011452  -0.021353   0.378585
    29  H    0.000302   0.000814   0.018718  -0.013583  -0.017138   0.380488
    30  H   -0.000000   0.000007  -0.000405   0.015904  -0.062195  -0.017629
    31  H    0.000000  -0.000000  -0.000000   0.000058   0.000783  -0.000017
    32  H   -0.000000   0.000000   0.000002   0.000025  -0.000092   0.000004
    33  H    0.000000  -0.000000  -0.000004   0.000036  -0.000573   0.000012
    34  H   -0.000006  -0.000009  -0.000462   0.015450  -0.001139   0.000034
    35  H    0.000248   0.000681  -0.003201   0.010955  -0.000339   0.000005
    36  H    0.002840  -0.002469   0.010454  -0.007448  -0.000347   0.000014
    37  H   -0.000579  -0.001613   0.017383  -0.015153   0.000209  -0.000006
    38  H   -0.000000   0.000005  -0.001000   0.000009   0.000016  -0.000011
    39  H   -0.000000   0.000000   0.000076   0.000001   0.000000  -0.000001
    40  H    0.000086  -0.000508   0.000032  -0.000000   0.000000   0.000000
    41  H    0.000363  -0.000332   0.000068   0.000001  -0.000000   0.000000
    42  H    0.000364  -0.000312   0.000144  -0.000000  -0.000000  -0.000000
               7          8          9         10         11         12
     1  C   -0.000049   0.000016  -0.000000  -0.000400   0.001775  -0.003790
     2  C   -0.000204   0.000087  -0.000000  -0.000111  -0.012627   0.000028
     3  B    0.016451  -0.002534   0.000056   0.015483  -0.061308   0.002260
     4  C    0.036373  -0.120715  -0.000381   0.039335   0.281589  -0.098330
     5  C    0.358792   0.065040   0.012198  -0.119107   0.076017   0.013895
     6  C   -0.095798   0.014303  -0.000274  -0.001292   0.014777  -0.000087
     7  C    5.124782   0.336927  -0.085361   0.044842  -0.126553  -0.001088
     8  C    0.336927   5.164038   0.419142   0.332608   0.067921   0.013814
     9  C   -0.085361   0.419142   4.624858  -0.084909   0.012046  -0.000329
    10  C    0.044842   0.332608  -0.084909   5.115413   0.341834  -0.091256
    11  C   -0.126553   0.067921   0.012046   0.341834   5.215909   0.424167
    12  C   -0.001088   0.013814  -0.000329  -0.091256   0.424167   4.629496
    13  C   -0.000432   0.000112   0.000000  -0.000346   0.004784   0.000462
    14  C   -0.000289   0.000057  -0.000000  -0.000138   0.001385   0.000019
    15  F   -0.000353   0.000081  -0.000000  -0.000468   0.002412  -0.002212
    16  C   -0.000007   0.000003   0.000000  -0.000004   0.000106  -0.000033
    17  C    0.000001  -0.000000   0.000000   0.000000  -0.000003   0.000001
    18  C   -0.000002   0.000000  -0.000000  -0.000000   0.000003   0.000002
    19  F    0.000000  -0.000000  -0.000000   0.000000  -0.000000  -0.000000
    20  C    0.000009   0.000000   0.000000   0.000007  -0.000355  -0.000013
    21  F    0.000000  -0.000000  -0.000000   0.000000  -0.000005   0.000001
    22  N    0.000001  -0.000000   0.000000   0.000002   0.000104  -0.000495
    23  C    0.000000  -0.000000   0.000000   0.000001  -0.000059   0.000116
    24  C    0.000000  -0.000000   0.000000   0.000000  -0.000000  -0.000001
[...]
    35  H   -0.000030   0.000005   0.000159   0.000001  -0.000000  -0.000000
    36  H   -0.000433  -0.000223  -0.000023   0.000075  -0.000009   0.000008
    37  H    0.000924  -0.001426   0.007971  -0.000267   0.000021  -0.000015
    38  H    0.023008  -0.049419   0.004466   0.411034  -0.047653   0.009523
    39  H   -0.006342   0.011757  -0.000131  -0.050291   0.415707  -0.050421
    40  H   -0.000007  -0.000001   0.000000   0.000000  -0.000000   0.000000
    41  H   -0.000034  -0.000003   0.000000   0.000001  -0.000001  -0.000001
    42  H   -0.000003   0.000001  -0.000000  -0.000000   0.000000  -0.000001
              19         20         21         22         23         24
     1  C   -0.000001  -0.000932  -0.002099  -0.059875  -0.135523  -0.002531
     2  C   -0.000018  -0.000506  -0.005282   0.289968  -0.064689   0.015911
     3  B   -0.001414  -0.042925   0.019263   0.017263  -0.003710  -0.003271
     4  C    0.000014  -0.006596   0.000924   0.007385  -0.002286   0.000015
     5  C   -0.000005  -0.001583  -0.001788   0.000234   0.000057  -0.000002
     6  C    0.000038  -0.002147  -0.000310   0.000335  -0.000095  -0.000006
     7  C   -0.000000   0.000263  -0.000086  -0.000012   0.000010   0.000000
     8  C    0.000000  -0.000008   0.000001   0.000007  -0.000007  -0.000000
     9  C    0.000000  -0.000001   0.000000   0.000000  -0.000000   0.000000
    10  C   -0.000000   0.000033   0.000000  -0.000053   0.000006  -0.000000
    11  C   -0.000000   0.000316  -0.000025  -0.000242   0.000224  -0.000004
    12  C   -0.000000  -0.000049  -0.000005  -0.000100   0.000047  -0.000019
    13  C    0.014379   0.069494  -0.056966  -0.014647  -0.001127   0.000284
    14  C   -0.000927   0.078414   0.001537  -0.000008  -0.000184   0.000010
    15  F    0.000000   0.005661  -0.000036   0.000033  -0.000011  -0.000000
    16  C    0.008678  -0.072505   0.000741   0.000288   0.000044  -0.000001
    17  C   -0.064631  -0.046024   0.006463  -0.000310  -0.000034   0.000001
    18  C    0.330395   0.235387  -0.037352  -0.000289  -0.000059  -0.000014
    19  F    8.973783  -0.084991   0.000470  -0.000001   0.000002   0.000000
    20  C   -0.084991   5.327897   0.262983  -0.001094  -0.000593  -0.000157
    21  F    0.000470   0.262983   8.984577  -0.004185   0.002073   0.000068
    22  N   -0.000001  -0.001094  -0.004185   6.519371   0.614480  -0.052896
    23  C    0.000002  -0.000593   0.002073   0.614480   4.880088   0.276321
    24  C    0.000000  -0.000157   0.000068  -0.052896   0.276321   4.979686
    25  O    0.000000   0.000002  -0.000012  -0.074229   0.335953  -0.040864
    26  H    0.000000   0.000002  -0.000006   0.003106   0.004391  -0.000373
    27  H   -0.000017   0.000757  -0.000689   0.000031  -0.000006  -0.000000
    28  H    0.000001   0.000229   0.000193  -0.000006   0.000000   0.000000
    29  H    0.000011  -0.004697   0.004806  -0.000098  -0.000155  -0.000001
    30  H   -0.000000   0.000010   0.000000  -0.000000   0.000000  -0.000000
    31  H   -0.000000   0.000000  -0.000000   0.000000   0.000000   0.000000
    32  H    0.000000   0.000000   0.000000  -0.000000  -0.000000  -0.000000
    33  H   -0.000000  -0.000000   0.000000  -0.000000   0.000000   0.000000
    34  H   -0.000000  -0.000001  -0.000000  -0.000000   0.000001   0.000000
    35  H   -0.000000   0.000010   0.000000  -0.000012  -0.000015   0.000000
    36  H   -0.000000  -0.000025   0.000003   0.000189   0.000378  -0.000044
    37  H   -0.000000  -0.000081   0.000002   0.000001  -0.000009   0.000003
    38  H   -0.000066  -0.005264   0.000018  -0.000001   0.000000   0.000000
    39  H    0.002388   0.019806  -0.000125  -0.000003  -0.000000   0.000000
    40  H   -0.000000   0.000003  -0.000001  -0.000417  -0.033387   0.398130
    41  H   -0.000000   0.000022  -0.000006   0.007336  -0.057384   0.429162
    42  H   -0.000000  -0.000002   0.000001  -0.000019  -0.034092   0.399057
              25         26         27         28         29         30
     1  C    0.374839   0.398250  -0.000028   0.000061  -0.000697  -0.000005
     2  C   -0.122746  -0.015716  -0.001159   0.000348   0.001706   0.000028
     3  B    0.010022  -0.000435   0.006796  -0.004906  -0.005871  -0.000999
     4  C   -0.000062  -0.002114  -0.010592   0.010686  -0.011080   0.020488
     5  C    0.000196   0.000553  -0.019081  -0.055089  -0.036325  -0.060811
     6  C   -0.000011  -0.000020   0.393102   0.397876   0.418514  -0.012176
     7  C    0.000004   0.000059  -0.003932  -0.000510  -0.003138   0.426537
     8  C    0.000001   0.000147  -0.000250   0.001307   0.000150  -0.066895
     9  C   -0.000000  -0.000004  -0.000009  -0.000062   0.000042  -0.009920
    10  C   -0.000023   0.000656   0.000396   0.000182  -0.000811   0.017228
    11  C   -0.000184   0.002121  -0.000272  -0.000461   0.002421  -0.003453
    12  C    0.000079  -0.000327   0.000025   0.000038   0.000126   0.000139
    13  C   -0.001022   0.000277  -0.001509   0.000422  -0.003310   0.000018
    14  C    0.000035   0.000036   0.000398   0.000043   0.001887   0.000019
    15  F   -0.000000   0.000001  -0.000125  -0.000007  -0.000014  -0.000000
    16  C    0.000000  -0.000000   0.000424  -0.000001  -0.000045  -0.000001
    17  C   -0.000000   0.000000   0.000151  -0.000013   0.000139   0.000000
    18  C    0.000003  -0.000000   0.001850  -0.000053  -0.000719  -0.000000
    19  F    0.000000   0.000000  -0.000017   0.000001   0.000011  -0.000000
    20  C    0.000002   0.000002   0.000757   0.000229  -0.004697   0.000010
    21  F   -0.000012  -0.000006  -0.000689   0.000193   0.004806   0.000000
    22  N   -0.074229   0.003106   0.000031  -0.000006  -0.000098  -0.000000
    23  C    0.335953   0.004391  -0.000006   0.000000  -0.000155   0.000000
    24  C   -0.040864  -0.000373  -0.000000   0.000000  -0.000001  -0.000000
    25  O    7.710788  -0.023701   0.000000  -0.000001  -0.000042   0.000000
    26  H   -0.023701   0.458070  -0.000003   0.000005   0.000077  -0.000001
    27  H    0.000000  -0.000003   0.553426  -0.023738  -0.033440   0.000373
    28  H   -0.000001   0.000005  -0.023738   0.551811  -0.016085   0.005815
    29  H   -0.000042   0.000077  -0.033440  -0.016085   0.537981   0.000066
    30  H    0.000000  -0.000001   0.000373   0.005815   0.000066   0.585985
    31  H    0.000000  -0.000001   0.000008  -0.000009  -0.000004   0.003305
    32  H   -0.000000   0.000000  -0.000001   0.000007   0.000000   0.000480
    33  H    0.000000  -0.000001  -0.000002   0.000002   0.000000   0.000034
    34  H   -0.000000   0.000013  -0.000001  -0.000003  -0.000007  -0.000309
    35  H   -0.000004   0.000034  -0.000001  -0.000001   0.000001  -0.000004
    36  H    0.000293  -0.000344   0.000013  -0.000001  -0.000039  -0.000006
    37  H   -0.000004   0.000071  -0.000023   0.000001   0.000026  -0.000001
    38  H    0.000000  -0.000000   0.000003  -0.000000  -0.000000  -0.000000
    39  H   -0.000000   0.000000  -0.000006   0.000000   0.000002   0.000000
    40  H    0.000228  -0.000002  -0.000000  -0.000000  -0.000000   0.000000
    41  H    0.003814   0.000001   0.000000  -0.000000  -0.000000  -0.000000
    42  H    0.000553  -0.000024  -0.000000   0.000000   0.000000   0.000000
              31         32         33         34         35         36
     1  C    0.000000  -0.000001   0.000002  -0.000012   0.000341  -0.001262
     2  C   -0.000000  -0.000000   0.000001   0.000001   0.000480  -0.002032
     3  B    0.000012  -0.000005  -0.000053  -0.001469  -0.001420   0.001963
     4  C    0.000347   0.000004   0.000607   0.023438   0.010237  -0.019824
     5  C    0.001754   0.000099  -0.001193  -0.003584  -0.000241   0.001786
     6  C   -0.000063  -0.000029   0.000027   0.000143   0.000031   0.000063
     7  C    0.001488  -0.005170   0.004164   0.017189   0.000097  -0.000639
     8  C   -0.055051  -0.025573  -0.055823  -0.070682   0.001929  -0.000086
     9  C    0.417250   0.391972   0.415854  -0.009528  -0.000057   0.000045
    10  C    0.003096  -0.004208   0.002710   0.425934  -0.002839  -0.000823
    11  C   -0.000648  -0.000437   0.001548  -0.058325  -0.056229  -0.035540
    12  C    0.000029   0.000001  -0.000134  -0.014534   0.400885   0.421788
    13  C   -0.000000   0.000002   0.000000   0.000044  -0.000030  -0.000433
    14  C    0.000000  -0.000001   0.000000   0.000007   0.000005  -0.000223
    15  F    0.000000  -0.000000   0.000000   0.000002   0.000159  -0.000023
    16  C    0.000000  -0.000000  -0.000000  -0.000000   0.000001   0.000075
    17  C   -0.000000  -0.000000   0.000000  -0.000000  -0.000000  -0.000009
    18  C   -0.000000   0.000000  -0.000000  -0.000000  -0.000000   0.000008
    19  F   -0.000000   0.000000  -0.000000  -0.000000  -0.000000  -0.000000
    20  C    0.000000   0.000000  -0.000000  -0.000001   0.000010  -0.000025
    21  F   -0.000000   0.000000   0.000000  -0.000000   0.000000   0.000003
    22  N    0.000000  -0.000000  -0.000000  -0.000000  -0.000012   0.000189
    23  C    0.000000  -0.000000   0.000000   0.000001  -0.000015   0.000378
    24  C    0.000000  -0.000000   0.000000   0.000000   0.000000  -0.000044
    25  O    0.000000  -0.000000   0.000000  -0.000000  -0.000004   0.000293
    26  H   -0.000001   0.000000  -0.000001   0.000013   0.000034  -0.000344
    27  H    0.000008  -0.000001  -0.000002  -0.000001  -0.000001   0.000013
    28  H   -0.000009   0.000007   0.000002  -0.000003  -0.000001  -0.000001
    29  H   -0.000004   0.000000   0.000000  -0.000007   0.000001  -0.000039
    30  H    0.003305   0.000480   0.000034  -0.000309  -0.000004  -0.000006
    31  H    0.547159  -0.027045  -0.022045   0.000021   0.000001   0.000000
    32  H   -0.027045   0.559578  -0.027259   0.000482   0.000007  -0.000001
    33  H   -0.022045  -0.027259   0.548110   0.003339  -0.000000  -0.000002
    34  H    0.000021   0.000482   0.003339   0.588511   0.006114   0.000034
    35  H    0.000001   0.000007  -0.000000   0.006114   0.552003  -0.018962
    36  H    0.000000  -0.000001  -0.000002   0.000034  -0.018962   0.549146
    37  H   -0.000001  -0.000003   0.000009   0.000445  -0.018965  -0.034136
    38  H   -0.000000   0.000000  -0.000000  -0.000000  -0.000000   0.000002
    39  H   -0.000000  -0.000000   0.000000   0.000000   0.000000  -0.000000
    40  H    0.000000   0.000000   0.000000  -0.000000   0.000000  -0.000002
    41  H    0.000000  -0.000000  -0.000000   0.000000  -0.000000   0.000000
    42  H   -0.000000   0.000000  -0.000000   0.000000  -0.000000   0.000001
              37         38         39         40         41         42
     1  C    0.000646  -0.000002  -0.000000   0.001937   0.000338   0.000976
     2  C   -0.000483   0.000040   0.000002  -0.001453  -0.001822  -0.001111
     3  B   -0.000456  -0.001130   0.000458  -0.000121   0.000380   0.000316
     4  C   -0.003058   0.000041  -0.000007  -0.000001   0.000007  -0.000002
     5  C    0.000524   0.000013   0.000002   0.000000   0.000000  -0.000001
     6  C    0.000060   0.000004  -0.000009   0.000000   0.000000  -0.000000
     7  C    0.000470  -0.000005   0.000000  -0.000000   0.000000   0.000000
     8  C   -0.000368   0.000000  -0.000000   0.000000  -0.000000  -0.000000
     9  C   -0.000014   0.000000  -0.000000  -0.000000  -0.000000  -0.000000
    10  C   -0.007604  -0.000002   0.000000   0.000000   0.000000   0.000000
    11  C   -0.030765   0.000039  -0.000000   0.000001   0.000001  -0.000000
    12  C    0.399802  -0.000017  -0.000000  -0.000001  -0.000001  -0.000000
    13  C    0.000924   0.023008  -0.006342  -0.000007  -0.000034  -0.000003
    14  C   -0.001426  -0.049419   0.011757  -0.000001  -0.000003   0.000001
    15  F    0.007971   0.004466  -0.000131   0.000000   0.000000  -0.000000
    16  C   -0.000267   0.411034  -0.050291   0.000000   0.000001  -0.000000
    17  C    0.000021  -0.047653   0.415707  -0.000000  -0.000001   0.000000
    18  C   -0.000015   0.009523  -0.050421   0.000000  -0.000001  -0.000001
    19  F   -0.000000  -0.000066   0.002388  -0.000000  -0.000000  -0.000000
    20  C   -0.000081  -0.005264   0.019806   0.000003   0.000022  -0.000002
    21  F    0.000002   0.000018  -0.000125  -0.000001  -0.000006   0.000001
    22  N    0.000001  -0.000001  -0.000003  -0.000417   0.007336  -0.000019
    23  C   -0.000009   0.000000  -0.000000  -0.033387  -0.057384  -0.034092
    24  C    0.000003   0.000000   0.000000   0.398130   0.429162   0.399057
    25  O   -0.000004   0.000000  -0.000000   0.000228   0.003814   0.000553
    26  H    0.000071  -0.000000   0.000000  -0.000002   0.000001  -0.000024
    27  H   -0.000023   0.000003  -0.000006  -0.000000   0.000000  -0.000000
    28  H    0.000001  -0.000000   0.000000  -0.000000  -0.000000   0.000000
    29  H    0.000026  -0.000000   0.000002  -0.000000  -0.000000   0.000000
    30  H   -0.000001  -0.000000   0.000000   0.000000  -0.000000   0.000000
    31  H   -0.000001  -0.000000  -0.000000   0.000000   0.000000  -0.000000
    32  H   -0.000003   0.000000  -0.000000   0.000000  -0.000000   0.000000
    33  H    0.000009  -0.000000   0.000000   0.000000  -0.000000  -0.000000
    34  H    0.000445  -0.000000   0.000000  -0.000000   0.000000   0.000000
    35  H   -0.018965  -0.000000   0.000000   0.000000  -0.000000  -0.000000
    36  H   -0.034136   0.000002  -0.000000  -0.000002   0.000000   0.000001
    37  H    0.539617   0.000001   0.000000   0.000000  -0.000000  -0.000000
    38  H    0.000001   0.530549  -0.008023   0.000000  -0.000000  -0.000000
    39  H    0.000000  -0.008023   0.528330  -0.000000  -0.000000   0.000000
    40  H    0.000000   0.000000  -0.000000   0.537498  -0.017735  -0.029181
    41  H   -0.000000  -0.000000  -0.000000  -0.017735   0.492717  -0.017062
    42  H   -0.000000  -0.000000   0.000000  -0.029181  -0.017062   0.534493
 Mulliken charges:
               1
     1  C   -0.000860
     2  C    0.054228
     3  B   -0.028589
     4  C   -0.081399
     5  C    0.190848
     6  C   -0.392202
     7  C   -0.369599
     8  C    0.261987
     9  C   -0.415305
    10  C   -0.362865
    11  C    0.180123
    12  C   -0.399062
    13  C   -0.155556
    14  C    0.306701
    15  F   -0.191779
    16  C   -0.233909
    17  C   -0.165965
    18  C    0.182062
    19  F   -0.178086
    20  C    0.268891
    21  F   -0.175152
    22  N   -0.251530
    23  C    0.219289
    24  C   -0.398467
    25  O   -0.173906
    26  H    0.175202
    27  H    0.137130
    28  H    0.131921
    29  H    0.148623
    30  H    0.094056
    31  H    0.130397
    32  H    0.137101
    33  H    0.130106
    34  H    0.092739
    35  H    0.126446
    36  H    0.138668
    37  H    0.147086
    38  H    0.132842
    39  H    0.136907
    40  H    0.144510
    41  H    0.160270
    42  H    0.146099
 Sum of Mulliken charges =  -0.00000
 Mulliken charges with hydrogens summed into heavy atoms:
               1
     1  C    0.174342
     2  C    0.054228
     3  B   -0.028589
     4  C   -0.081399
     5  C    0.190848
     6  C    0.025472
     7  C   -0.275543
     8  C    0.261987
     9  C   -0.017702
    10  C   -0.270126
    11  C    0.180123
    12  C    0.013138
    13  C   -0.155556
    14  C    0.306701
    15  F   -0.191779
    16  C   -0.101068
    17  C   -0.029058
    18  C    0.182062
    19  F   -0.178086
    20  C    0.268891
    21  F   -0.175152
    22  N   -0.251530
    23  C    0.219289
    24  C    0.052413
    25  O   -0.173906
 Electronic spatial extent (au):  <R**2>=           8478.2364
 Charge=             -0.0000 electrons
 Dipole moment (field-independent basis, Debye):
    X=              0.6967    Y=              1.2886    Z=              0.4149  Tot=              1.5225
 Quadrupole moment (field-independent basis, Debye-Ang):
   XX=           -138.4248   YY=           -126.6376   ZZ=           -141.4341
   XY=             -2.4735   XZ=             -4.9213   YZ=             -1.1176
 Traceless Quadrupole moment (field-independent basis, Debye-Ang):
   XX=             -2.9259   YY=              8.8612   ZZ=             -5.9353
   XY=             -2.4735   XZ=             -4.9213   YZ=             -1.1176
 Octapole moment (field-independent basis, Debye-Ang**2):
  XXX=             -7.4870  YYY=              7.7800  ZZZ=            -10.4995  XYY=            -74.5956
  XXY=             16.5210  XXZ=             11.8036  XZZ=             -3.1157  YZZ=             -4.6663
  YYZ=             16.3740  XYZ=             18.7165
 Hexadecapole moment (field-independent basis, Debye-Ang**3):
 XXXX=          -5884.3929 YYYY=          -3463.5104 ZZZZ=          -1298.6615 XXXY=            -69.7497
 XXXZ=             14.1954 YYYX=            -22.5558 YYYZ=            -58.2489 ZZZX=             50.6947
 ZZZY=             -6.3830 XXYY=          -1465.4313 XXZZ=          -1219.4048 YYZZ=           -814.1529
 XXYZ=            -15.7323 YYXZ=            -34.3763 ZZXY=              4.1867
 N-N= 2.167392101438D+03 E-N=-7.115260141674D+03  KE= 1.182194857003D+03
 No NMR shielding tensors so no spin-rotation constants.
 Leave Link  601 at Thu Jan 23 18:55:25 2025, MaxMem=  3221225472 cpu:              14.9 elap:               0.8
 (Enter /software/gaussian/G16-C.01/avx2/g16/l9999.exe)
 Unable to Open any file for archive entry.
 1\1\GINC-NODE12\SP\RPBE1PBE\def2TZVP\C19H17B1F3N1O1\LAPLAZA\23-Jan-202
 5\0\\#p def2tzvp pbe1pbe integral=ultrafinegrid geom=allcheck guess=re
 ad em=gd3bj\\neutral\\0,1\C,0,-0.1949748433,2.546853578,0.8971410564\C
 ,0,-0.959261968,1.4151628038,0.7668740882\B,0,-0.5100921745,0.06851974
 9,0.1698779944\C,0,1.0108411811,-0.169353929,-0.1360919646\C,0,1.43314
 39668,-0.1630751789,-1.4814489146\C,0,0.4343063457,-0.0035136773,-2.59
 63950213\C,0,2.7895121816,-0.3068630491,-1.7806876409\C,0,3.747434552,
 -0.4827215275,-0.7799193422\C,0,5.1965402695,-0.6754051269,-1.12129656
 37\C,0,3.3125458347,-0.5030952253,0.5471900708\C,0,1.9664913118,-0.346
 3811831,0.8861761823\C,0,1.5467905474,-0.4239544578,2.3280747303\C,0,-
 1.5978451455,-1.013463581,-0.1770973602\C,0,-1.4796171941,-2.348290241
 2,0.2228882392\F,0,-0.4133723506,-2.7049910335,0.9443031934\C,0,-2.427
 6135793,-3.3195642027,-0.0651459532\C,0,-3.5504365957,-2.9603465736,-0
 .8081179045\C,0,-3.7013493159,-1.6505970928,-1.2373094246\F,0,-4.75678
 90925,-1.2918206737,-1.9607908137\C,0,-2.7367164917,-0.6956049821,-0.9
 183076861\F,0,-2.9003775459,0.5342576162,-1.3903474583\N,0,-2.23720617
 25,1.7284301969,1.2383782618\C,0,-2.1819969357,2.9595862421,1.60675909
 11\C,0,-3.2406741196,3.8129902846,2.187184726\O,0,-0.9516498839,3.5241
 268206,1.4180299606\H,0,0.8408808785,2.7786639986,0.6607806707\H,0,-0.
 1301309083,-0.9373804204,-2.754559717\H,0,0.9285307599,0.2493671528,-3
 .5449150761\H,0,-0.3071721143,0.78330223,-2.3853221996\H,0,3.107742316
 8,-0.2784629435,-2.8276724274\H,0,5.4630634445,-0.1626808742,-2.057036
 7591\H,0,5.4295662968,-1.7450005915,-1.2573691451\H,0,5.8532903965,-0.
 2985526564,-0.3235948086\H,0,4.0461711642,-0.6435741581,1.3473048434\H
 ,0,2.41646715,-0.4531489836,2.9992169744\H,0,0.9186744605,0.4312858065
 ,2.6193557903\H,0,0.9513224987,-1.3332535647,2.5065137694\H,0,-2.27919
 16666,-4.3396738733,0.2906308155\H,0,-4.3194979636,-3.6899153616,-1.06
 80046252\H,0,-2.9503835347,4.1794095394,3.1835851602\H,0,-4.1598416568
 ,3.2224779433,2.2720456016\H,0,-3.430884254,4.690266241,1.550458636\\V
 ersion=ES64L-G16RevC.01\State=1-A\HF=-1187.7913306\RMSD=4.020e-09\Dipo
 le=0.3144084,0.3595095,0.3615157\Quadrupole=-2.4392233,5.0004199,-2.56
 11965,0.6681973,-3.8268723,4.1731106\PG=C01 [X(C19H17B1F3N1O1)]\\@
 The archive entry for this job was punched.


 SACRED COWS MAKE GREAT HAMBURGERS -- ROBERT REISNER
 Job cpu time:       0 days  2 hours 55 minutes 33.9 seconds.
 Elapsed time:       0 days  0 hours  7 minutes 19.2 seconds.
 File lengths (MBytes):  RWF=    401 Int=      0 D2E=      0 Chk=     55 Scr=      1
 Normal termination of Gaussian 16 at Thu Jan 23 18:55:25 2025.
