 Entering Gaussian System, Link 0=g16
 Input=with_proton.com
 Output=with_proton.log
 Initial command:
 /software/gaussian/G16-C.01/avx2/g16/l1.exe "/scratch/laplaza/9953614.slurm/Gau-355518.inp" -scrdir="/scratch/laplaza/9953614.slurm/"
 Entering Link 1 = /software/gaussian/G16-C.01/avx2/g16/l1.exe PID=    355519.
  
 Copyright (c) 1988-2019, Gaussian, Inc.  All Rights Reserved.
  
 This is part of the Gaussian(R) 16 program.  It is based on
 the Gaussian(R) 09 system (copyright 2009, Gaussian, Inc.),
 the Gaussian(R) 03 system (copyright 2003, Gaussian, Inc.),
 the Gaussian(R) 98 system (copyright 1998, Gaussian, Inc.),
 the Gaussian(R) 94 system (copyright 1995, Gaussian, Inc.),
 the Gaussian 92(TM) system (copyright 1992, Gaussian, Inc.),
 the Gaussian 90(TM) system (copyright 1990, Gaussian, Inc.),
 the Gaussian 88(TM) system (copyright 1988, Gaussian, Inc.),
 the Gaussian 86(TM) system (copyright 1986, Carnegie Mellon
 University), and the Gaussian 82(TM) system (copyright 1983,
 Carnegie Mellon University). Gaussian is a federally registered
 trademark of Gaussian, Inc.
  
 This software contains proprietary and confidential information,
 including trade secrets, belonging to Gaussian, Inc.
  
 This software is provided under written license and may be
 used, copied, transmitted, or stored only in accord with that
 written license.
  
 The following legend is applicable only to US Government
 contracts under FAR:
  
                    RESTRICTED RIGHTS LEGEND
  
 Use, reproduction and disclosure by the US Government is
 subject to restrictions as set forth in subparagraphs (a)
 and (c) of the Commercial Computer Software - Restricted
 Rights clause in FAR 52.227-19.
  
 Gaussian, Inc.
 340 Quinnipiac St., Bldg. 40, Wallingford CT 06492
  
  
 ---------------------------------------------------------------
 Warning -- This program may not be used in any manner that
 competes with the business of Gaussian, Inc. or will provide
 assistance to any competitor of Gaussian, Inc.  The licensee
 of this program is prohibited from giving any competitor of
 Gaussian, Inc. access to this program.  By using this program,
 the user acknowledges that Gaussian, Inc. is engaged in the
 business of creating and licensing software in the field of
 computational chemistry and represents and warrants to the
 licensee that it is not a competitor of Gaussian, Inc. and that
 it will not use this program in any manner prohibited above.
 ---------------------------------------------------------------
  

 Cite this work as:
 Gaussian 16, Revision C.01,
 M. J. Frisch, G. W. Trucks, H. B. Schlegel, G. E. Scuseria, 
 M. A. Robb, J. R. Cheeseman, G. Scalmani, V. Barone, 
 G. A. Petersson, H. Nakatsuji, X. Li, M. Caricato, A. V. Marenich, 
 J. Bloino, B. G. Janesko, R. Gomperts, B. Mennucci, H. P. Hratchian, 
 J. V. Ortiz, A. F. Izmaylov, J. L. Sonnenberg, D. Williams-Young, 
 F. Ding, F. Lipparini, F. Egidi, J. Goings, B. Peng, A. Petrone, 
 T. Henderson, D. Ranasinghe, V. G. Zakrzewski, J. Gao, N. Rega, 
 G. Zheng, W. Liang, M. Hada, M. Ehara, K. Toyota, R. Fukuda, 
 J. Hasegawa, M. Ishida, T. Nakajima, Y. Honda, O. Kitao, H. Nakai, 
 T. Vreven, K. Throssell, J. A. Montgomery, Jr., J. E. Peralta, 
 F. Ogliaro, M. J. Bearpark, J. J. Heyd, E. N. Brothers, K. N. Kudin, 
 V. N. Staroverov, T. A. Keith, R. Kobayashi, J. Normand, 
 K. Raghavachari, A. P. Rendell, J. C. Burant, S. S. Iyengar, 
 J. Tomasi, M. Cossi, J. M. Millam, M. Klene, C. Adamo, R. Cammi, 
 J. W. Ochterski, R. L. Martin, K. Morokuma, O. Farkas, 
 J. B. Foresman, and D. J. Fox, Gaussian, Inc., Wallingford CT, 2019.
 
 ******************************************
 Gaussian 16:  ES64L-G16RevC.01  3-Jul-2019
                24-Jan-2025 
 ******************************************
 %nprocshared=24
 Will use up to   24 processors via shared memory.
 %mem=24GB
 %chk=with_proton.chk
 -------------------------------------------------------------------
 #p opt freq=noraman def2svp pbe1pbe em=gd3bj integral=ultrafinegrid
 -------------------------------------------------------------------
 1/18=20,19=15,26=4,38=1/1,3;
 2/9=110,12=2,17=6,18=5,40=1/2;
 3/5=43,7=101,11=2,25=1,30=1,71=1,74=-13,75=-5,124=41/1,2,3;
 4//1;
 5/5=2,38=5/2;
 6/7=2,8=2,9=2,10=2,28=1/1;
 7//1,2,3,16;
 1/18=20,19=15,26=4/3(2);
 2/9=110/2;
 99//99;
 2/9=110/2;
 3/5=43,7=101,11=2,25=1,30=1,71=1,74=-13,75=-5,124=41/1,2,3;
 4/5=5,16=3,69=1/1;
 5/5=2,38=5/2;
 7//1,2,3,16;
 1/18=20,19=15,26=4/3(-5);
 2/9=110/2;
 6/7=2,8=2,9=2,10=2,19=2,28=1/1;
 99/9=1/99;
 Leave Link    1 at Fri Jan 24 16:52:54 2025, MaxMem=  3221225472 cpu:               1.9 elap:               0.1
 (Enter /software/gaussian/G16-C.01/avx2/g16/l101.exe)
 -----------
 with_proton
 -----------
 Symbolic Z-matrix:
 Charge =  1 Multiplicity = 1
 C                    -0.23215   2.6475    0.87087 
 C                    -0.9849    1.50327   0.75942 
 B                    -0.54291   0.15469   0.0985 
 C                     0.98993  -0.11907  -0.19011 
 C                     1.44403  -0.3039   -1.53656 
 C                     0.49558  -0.24797  -2.69698 
 C                     2.79563  -0.53102  -1.74516 
 C                     3.72275  -0.54514  -0.7225 
 C                     5.17004  -0.8154   -0.99427 
 C                     3.2792   -0.4009    0.60362 
 C                     1.9089   -0.17454   0.8854 
 C                     1.482    -0.05695   2.31794 
 C                    -1.62608  -0.97892  -0.28943 
 C                    -1.33145  -2.3171   -0.08194 
 F                    -0.1535   -2.71999   0.44443 
 C                    -2.27843  -3.30691  -0.41806 
 C                    -3.49901  -2.95271  -0.96994 
 C                    -3.80418  -1.59397  -1.1752 
 F                    -4.98049  -1.22838  -1.73719 
 C                    -2.87293  -0.59614  -0.82985 
 F                    -3.17103   0.69586  -1.12104 
 N                    -2.21358   1.72729   1.34541 
 C                    -2.11511   3.00487   1.76546 
 C                    -3.23579   3.71073   2.46349 
 O                    -0.95713   3.56598   1.45753 
 H                     0.78106   2.79984   0.50248 
 H                    -0.1244   -1.1736   -2.71775 
 H                     1.05678  -0.16424  -3.66745 
 H                    -0.16041   0.65267  -2.62932 
 H                     3.15975  -0.67144  -2.76899 
 H                     5.46847  -0.4099   -1.98542 
 H                     5.35358  -1.91531  -0.97666 
 H                     5.8205   -0.32567  -0.21881 
 H                     3.98853  -0.46114   1.41496 
 H                     2.26969  -0.4642    3.01548 
 H                     1.32021   1.02026   2.57906 
 H                     0.57062  -0.64973   2.50273 
 H                    -2.04402  -4.34827  -0.24693 
 H                    -4.22543  -3.69409  -1.24007 
 H                    -2.8414    4.57499   3.0379 
 H                    -3.74405   3.00385   3.15303 
 H                    -3.96265   4.0888    1.71327 
 H                    -3.05456   1.02495   1.44274 
 
 ITRead=  0  0  0  0  0  0  0  0  0  0  0  0  0  0  0  0  0  0  0  0
 ITRead=  0  0  0  0  0  0  0  0  0  0  0  0  0  0  0  0  0  0  0  0
 ITRead=  0  0  0
 MicOpt= -1 -1 -1 -1 -1 -1 -1 -1 -1 -1 -1 -1 -1 -1 -1 -1 -1 -1 -1 -1
 MicOpt= -1 -1 -1 -1 -1 -1 -1 -1 -1 -1 -1 -1 -1 -1 -1 -1 -1 -1 -1 -1
 MicOpt= -1 -1 -1
 NAtoms=     43 NQM=       43 NQMF=       0 NMMI=      0 NMMIF=      0
                NMic=       0 NMicF=      0.
                    Isotopes and Nuclear Properties:
 (Nuclear quadrupole moments (NQMom) in fm**2, nuclear magnetic moments (NMagM)
  in nuclear magnetons)

  Atom         1           2           3           4           5           6           7           8           9          10
 IAtWgt=          12          12          11          12          12          12          12          12          12          12
 AtmWgt=  12.0000000  12.0000000  11.0093053  12.0000000  12.0000000  12.0000000  12.0000000  12.0000000  12.0000000  12.0000000
 NucSpn=           0           0           3           0           0           0           0           0           0           0
 AtZEff=  -0.0000000  -0.0000000  -0.0000000  -0.0000000  -0.0000000  -0.0000000  -0.0000000  -0.0000000  -0.0000000  -0.0000000
 NQMom=    0.0000000   0.0000000   4.0590000   0.0000000   0.0000000   0.0000000   0.0000000   0.0000000   0.0000000   0.0000000
 NMagM=    0.0000000   0.0000000   2.6886370   0.0000000   0.0000000   0.0000000   0.0000000   0.0000000   0.0000000   0.0000000
 AtZNuc=   6.0000000   6.0000000   5.0000000   6.0000000   6.0000000   6.0000000   6.0000000   6.0000000   6.0000000   6.0000000

  Atom        11          12          13          14          15          16          17          18          19          20
 IAtWgt=          12          12          12          12          19          12          12          12          19          12
 AtmWgt=  12.0000000  12.0000000  12.0000000  12.0000000  18.9984032  12.0000000  12.0000000  12.0000000  18.9984032  12.0000000
 NucSpn=           0           0           0           0           1           0           0           0           1           0
 AtZEff=  -0.0000000  -0.0000000  -0.0000000  -0.0000000  -0.0000000  -0.0000000  -0.0000000  -0.0000000  -0.0000000  -0.0000000
 NQMom=    0.0000000   0.0000000   0.0000000   0.0000000   0.0000000   0.0000000   0.0000000   0.0000000   0.0000000   0.0000000
 NMagM=    0.0000000   0.0000000   0.0000000   0.0000000   2.6288670   0.0000000   0.0000000   0.0000000   2.6288670   0.0000000
 AtZNuc=   6.0000000   6.0000000   6.0000000   6.0000000   9.0000000   6.0000000   6.0000000   6.0000000   9.0000000   6.0000000

  Atom        21          22          23          24          25          26          27          28          29          30
 IAtWgt=          19          14          12          12          16           1           1           1           1           1
 AtmWgt=  18.9984032  14.0030740  12.0000000  12.0000000  15.9949146   1.0078250   1.0078250   1.0078250   1.0078250   1.0078250
 NucSpn=           1           2           0           0           0           1           1           1           1           1
 AtZEff=  -0.0000000  -0.0000000  -0.0000000  -0.0000000  -0.0000000  -0.0000000  -0.0000000  -0.0000000  -0.0000000  -0.0000000
 NQMom=    0.0000000   2.0440000   0.0000000   0.0000000   0.0000000   0.0000000   0.0000000   0.0000000   0.0000000   0.0000000
 NMagM=    2.6288670   0.4037610   0.0000000   0.0000000   0.0000000   2.7928460   2.7928460   2.7928460   2.7928460   2.7928460
 AtZNuc=   9.0000000   7.0000000   6.0000000   6.0000000   8.0000000   1.0000000   1.0000000   1.0000000   1.0000000   1.0000000

  Atom        31          32          33          34          35          36          37          38          39          40
 IAtWgt=           1           1           1           1           1           1           1           1           1           1
 AtmWgt=   1.0078250   1.0078250   1.0078250   1.0078250   1.0078250   1.0078250   1.0078250   1.0078250   1.0078250   1.0078250
 NucSpn=           1           1           1           1           1           1           1           1           1           1
 AtZEff=  -0.0000000  -0.0000000  -0.0000000  -0.0000000  -0.0000000  -0.0000000  -0.0000000  -0.0000000  -0.0000000  -0.0000000
 NQMom=    0.0000000   0.0000000   0.0000000   0.0000000   0.0000000   0.0000000   0.0000000   0.0000000   0.0000000   0.0000000
 NMagM=    2.7928460   2.7928460   2.7928460   2.7928460   2.7928460   2.7928460   2.7928460   2.7928460   2.7928460   2.7928460
 AtZNuc=   1.0000000   1.0000000   1.0000000   1.0000000   1.0000000   1.0000000   1.0000000   1.0000000   1.0000000   1.0000000

  Atom        41          42          43
 IAtWgt=           1           1           1
 AtmWgt=   1.0078250   1.0078250   1.0078250
 NucSpn=           1           1           1
 AtZEff=  -0.0000000  -0.0000000  -0.0000000
 NQMom=    0.0000000   0.0000000   0.0000000
 NMagM=    2.7928460   2.7928460   2.7928460
 AtZNuc=   1.0000000   1.0000000   1.0000000
 Leave Link  101 at Fri Jan 24 16:52:54 2025, MaxMem=  3221225472 cpu:              15.6 elap:               0.7
 (Enter /software/gaussian/G16-C.01/avx2/g16/l103.exe)

 GradGradGradGradGradGradGradGradGradGradGradGradGradGradGradGradGradGrad
 Berny optimization.
 Initialization pass.
                           ----------------------------
                           !    Initial Parameters    !
                           ! (Angstroms and Degrees)  !
 --------------------------                            --------------------------
 ! Name  Definition              Value          Derivative Info.                !
 --------------------------------------------------------------------------------
 ! R1    R(1,2)                  1.3742         estimate D2E/DX2                !
 ! R2    R(1,25)                 1.309          estimate D2E/DX2                !
 ! R3    R(1,26)                 1.0888         estimate D2E/DX2                !
 ! R4    R(2,3)                  1.5655         estimate D2E/DX2                !
 ! R5    R(2,22)                 1.3796         estimate D2E/DX2                !
 ! R6    R(3,4)                  1.5836         estimate D2E/DX2                !
 ! R7    R(3,13)                 1.6152         estimate D2E/DX2                !
 ! R8    R(4,5)                  1.4329         estimate D2E/DX2                !
 ! R9    R(4,11)                 1.4157         estimate D2E/DX2                !
 ! R10   R(5,6)                  1.4998         estimate D2E/DX2                !
 ! R11   R(5,7)                  1.3863         estimate D2E/DX2                !
 ! R12   R(6,27)                 1.1143         estimate D2E/DX2                !
 ! R13   R(6,28)                 1.1242         estimate D2E/DX2                !
 ! R14   R(6,29)                 1.1163         estimate D2E/DX2                !
 ! R15   R(7,8)                  1.3804         estimate D2E/DX2                !
 ! R16   R(7,30)                 1.0957         estimate D2E/DX2                !
 ! R17   R(8,9)                  1.4972         estimate D2E/DX2                !
 ! R18   R(8,10)                 1.4058         estimate D2E/DX2                !
 ! R19   R(9,31)                 1.1117         estimate D2E/DX2                !
 ! R20   R(9,32)                 1.1153         estimate D2E/DX2                !
 ! R21   R(9,33)                 1.1244         estimate D2E/DX2                !
 ! R22   R(10,11)                1.4172         estimate D2E/DX2                !
 ! R23   R(10,34)                1.0794         estimate D2E/DX2                !
 ! R24   R(11,12)                1.4994         estimate D2E/DX2                !
 ! R25   R(12,35)                1.1282         estimate D2E/DX2                !
 ! R26   R(12,36)                1.1202         estimate D2E/DX2                !
 ! R27   R(12,37)                1.1028         estimate D2E/DX2                !
 ! R28   R(13,14)                1.3858         estimate D2E/DX2                !
 ! R29   R(13,20)                1.4118         estimate D2E/DX2                !
 ! R30   R(14,15)                1.3516         estimate D2E/DX2                !
 ! R31   R(14,16)                1.4105         estimate D2E/DX2                !
 ! R32   R(16,17)                1.3856         estimate D2E/DX2                !
 ! R33   R(16,38)                1.081          estimate D2E/DX2                !
 ! R34   R(17,18)                1.4076         estimate D2E/DX2                !
 ! R35   R(17,39)                1.0725         estimate D2E/DX2                !
 ! R36   R(18,19)                1.354          estimate D2E/DX2                !
 ! R37   R(18,20)                1.4079         estimate D2E/DX2                !
 ! R38   R(20,21)                1.3575         estimate D2E/DX2                !
 ! R39   R(22,23)                1.3485         estimate D2E/DX2                !
 ! R40   R(22,43)                1.1            estimate D2E/DX2                !
 ! R41   R(23,24)                1.4971         estimate D2E/DX2                !
 ! R42   R(23,25)                1.3231         estimate D2E/DX2                !
 ! R43   R(24,40)                1.1102         estimate D2E/DX2                !
 ! R44   R(24,41)                1.1106         estimate D2E/DX2                !
 ! R45   R(24,42)                1.1109         estimate D2E/DX2                !
 ! A1    A(2,1,25)             108.4956         estimate D2E/DX2                !
 ! A2    A(2,1,26)             126.7859         estimate D2E/DX2                !
 ! A3    A(25,1,26)            124.6703         estimate D2E/DX2                !
 ! A4    A(1,2,3)              126.6459         estimate D2E/DX2                !
 ! A5    A(1,2,22)             108.5551         estimate D2E/DX2                !
 ! A6    A(3,2,22)             124.7959         estimate D2E/DX2                !
 ! A7    A(2,3,4)              119.943          estimate D2E/DX2                !
 ! A8    A(2,3,13)             121.1078         estimate D2E/DX2                !
 ! A9    A(4,3,13)             118.9478         estimate D2E/DX2                !
 ! A10   A(3,4,5)              120.0192         estimate D2E/DX2                !
 ! A11   A(3,4,11)             119.7767         estimate D2E/DX2                !
 ! A12   A(5,4,11)             120.2035         estimate D2E/DX2                !
 ! A13   A(4,5,6)              121.4545         estimate D2E/DX2                !
 ! A14   A(4,5,7)              118.1307         estimate D2E/DX2                !
 ! A15   A(6,5,7)              120.4139         estimate D2E/DX2                !
 ! A16   A(5,6,27)             109.5916         estimate D2E/DX2                !
 ! A17   A(5,6,28)             110.7947         estimate D2E/DX2                !
 ! A18   A(5,6,29)             110.7833         estimate D2E/DX2                !
 ! A19   A(27,6,28)            108.8774         estimate D2E/DX2                !
 ! A20   A(27,6,29)            110.1451         estimate D2E/DX2                !
 ! A21   A(28,6,29)            106.5943         estimate D2E/DX2                !
 ! A22   A(5,7,8)              123.024          estimate D2E/DX2                !
 ! A23   A(5,7,30)             119.0514         estimate D2E/DX2                !
 ! A24   A(8,7,30)             117.8878         estimate D2E/DX2                !
 ! A25   A(7,8,9)              121.1049         estimate D2E/DX2                !
 ! A26   A(7,8,10)             119.0712         estimate D2E/DX2                !
 ! A27   A(9,8,10)             119.655          estimate D2E/DX2                !
 ! A28   A(8,9,31)             110.8234         estimate D2E/DX2                !
 ! A29   A(8,9,32)             109.5272         estimate D2E/DX2                !
 ! A30   A(8,9,33)             110.8182         estimate D2E/DX2                !
 ! A31   A(31,9,32)            109.2468         estimate D2E/DX2                !
 ! A32   A(31,9,33)            107.5006         estimate D2E/DX2                !
 ! A33   A(32,9,33)            108.8728         estimate D2E/DX2                !
 ! A34   A(8,10,11)            120.6008         estimate D2E/DX2                !
 ! A35   A(8,10,34)            119.7366         estimate D2E/DX2                !
 ! A36   A(11,10,34)           119.6625         estimate D2E/DX2                !
 ! A37   A(4,11,10)            118.8721         estimate D2E/DX2                !
 ! A38   A(4,11,12)            122.542          estimate D2E/DX2                !
 ! A39   A(10,11,12)           118.5409         estimate D2E/DX2                !
 ! A40   A(11,12,35)           111.3223         estimate D2E/DX2                !
 ! A41   A(11,12,36)           109.8316         estimate D2E/DX2                !
 ! A42   A(11,12,37)           110.6853         estimate D2E/DX2                !
 ! A43   A(35,12,36)           107.6885         estimate D2E/DX2                !
 ! A44   A(35,12,37)           106.2222         estimate D2E/DX2                !
 ! A45   A(36,12,37)           111.0069         estimate D2E/DX2                !
 ! A46   A(3,13,14)            119.9448         estimate D2E/DX2                !
 ! A47   A(3,13,20)            119.5978         estimate D2E/DX2                !
 ! A48   A(14,13,20)           120.4558         estimate D2E/DX2                !
 ! A49   A(13,14,15)           122.1008         estimate D2E/DX2                !
 ! A50   A(13,14,16)           119.9466         estimate D2E/DX2                !
 ! A51   A(15,14,16)           117.952          estimate D2E/DX2                !
 ! A52   A(14,16,17)           120.4614         estimate D2E/DX2                !
 ! A53   A(14,16,38)           119.517          estimate D2E/DX2                !
 ! A54   A(17,16,38)           120.0208         estimate D2E/DX2                !
 ! A55   A(16,17,18)           119.7233         estimate D2E/DX2                !
 ! A56   A(16,17,39)           121.3494         estimate D2E/DX2                !
 ! A57   A(18,17,39)           118.9258         estimate D2E/DX2                !
 ! A58   A(17,18,19)           120.6315         estimate D2E/DX2                !
 ! A59   A(17,18,20)           120.328          estimate D2E/DX2                !
 ! A60   A(19,18,20)           119.0199         estimate D2E/DX2                !
 ! A61   A(13,20,18)           119.0717         estimate D2E/DX2                !
 ! A62   A(13,20,21)           122.2811         estimate D2E/DX2                !
 ! A63   A(18,20,21)           118.4674         estimate D2E/DX2                !
 ! A64   A(2,22,23)            102.775          estimate D2E/DX2                !
 ! A65   A(2,22,43)            127.9383         estimate D2E/DX2                !
 ! A66   A(23,22,43)           129.2861         estimate D2E/DX2                !
 ! A67   A(22,23,24)           122.4976         estimate D2E/DX2                !
 ! A68   A(22,23,25)           113.1545         estimate D2E/DX2                !
 ! A69   A(24,23,25)           124.312          estimate D2E/DX2                !
 ! A70   A(23,24,40)           110.0206         estimate D2E/DX2                !
 ! A71   A(23,24,41)           109.3878         estimate D2E/DX2                !
 ! A72   A(23,24,42)           109.5949         estimate D2E/DX2                !
 ! A73   A(40,24,41)           109.6848         estimate D2E/DX2                !
 ! A74   A(40,24,42)           108.4767         estimate D2E/DX2                !
 ! A75   A(41,24,42)           109.6608         estimate D2E/DX2                !
 ! A76   A(1,25,23)            106.9457         estimate D2E/DX2                !
 ! D1    D(25,1,2,3)           178.6832         estimate D2E/DX2                !
 ! D2    D(25,1,2,22)           -1.9318         estimate D2E/DX2                !
 ! D3    D(26,1,2,3)             1.1278         estimate D2E/DX2                !
 ! D4    D(26,1,2,22)         -179.4872         estimate D2E/DX2                !
 ! D5    D(2,1,25,23)            2.7259         estimate D2E/DX2                !
 ! D6    D(26,1,25,23)        -179.6546         estimate D2E/DX2                !
 ! D7    D(1,2,3,4)             15.6652         estimate D2E/DX2                !
 ! D8    D(1,2,3,13)          -164.7829         estimate D2E/DX2                !
 ! D9    D(22,2,3,4)          -163.6249         estimate D2E/DX2                !
 ! D10   D(22,2,3,13)           15.927          estimate D2E/DX2                !
 ! D11   D(1,2,22,23)            0.3283         estimate D2E/DX2                !
 ! D12   D(1,2,22,43)         -179.3992         estimate D2E/DX2                !
 ! D13   D(3,2,22,23)          179.7275         estimate D2E/DX2                !
 ! D14   D(3,2,22,43)            0.0            estimate D2E/DX2                !
 ! D15   D(2,3,4,5)           -117.5964         estimate D2E/DX2                !
 ! D16   D(2,3,4,11)            62.1304         estimate D2E/DX2                !
 ! D17   D(13,3,4,5)            62.8421         estimate D2E/DX2                !
 ! D18   D(13,3,4,11)         -117.4312         estimate D2E/DX2                !
 ! D19   D(2,3,13,14)         -140.2881         estimate D2E/DX2                !
 ! D20   D(2,3,13,20)           39.2549         estimate D2E/DX2                !
 ! D21   D(4,3,13,14)           39.2682         estimate D2E/DX2                !
 ! D22   D(4,3,13,20)         -141.1889         estimate D2E/DX2                !
 ! D23   D(3,4,5,6)             -0.1461         estimate D2E/DX2                !
 ! D24   D(3,4,5,7)            179.516          estimate D2E/DX2                !
 ! D25   D(11,4,5,6)          -179.8717         estimate D2E/DX2                !
 ! D26   D(11,4,5,7)            -0.2096         estimate D2E/DX2                !
 ! D27   D(3,4,11,10)         -179.072          estimate D2E/DX2                !
 ! D28   D(3,4,11,12)            3.4052         estimate D2E/DX2                !
 ! D29   D(5,4,11,10)            0.6542         estimate D2E/DX2                !
 ! D30   D(5,4,11,12)         -176.8686         estimate D2E/DX2                !
 ! D31   D(4,5,6,27)           -73.6205         estimate D2E/DX2                !
 ! D32   D(4,5,6,28)           166.2127         estimate D2E/DX2                !
 ! D33   D(4,5,6,29)            48.1209         estimate D2E/DX2                !
 ! D34   D(7,5,6,27)           106.725          estimate D2E/DX2                !
 ! D35   D(7,5,6,28)           -13.4417         estimate D2E/DX2                !
 ! D36   D(7,5,6,29)          -131.5336         estimate D2E/DX2                !
 ! D37   D(4,5,7,8)             -2.0751         estimate D2E/DX2                !
 ! D38   D(4,5,7,30)          -179.8213         estimate D2E/DX2                !
 ! D39   D(6,5,7,8)            177.5907         estimate D2E/DX2                !
 ! D40   D(6,5,7,30)            -0.1555         estimate D2E/DX2                !
 ! D41   D(5,7,8,9)            179.0701         estimate D2E/DX2                !
 ! D42   D(5,7,8,10)             3.8102         estimate D2E/DX2                !
 ! D43   D(30,7,8,9)            -3.159          estimate D2E/DX2                !
 ! D44   D(30,7,8,10)         -178.4189         estimate D2E/DX2                !
 ! D45   D(7,8,9,31)            33.4704         estimate D2E/DX2                !
 ! D46   D(7,8,9,32)           -87.1325         estimate D2E/DX2                !
 ! D47   D(7,8,9,33)           152.7332         estimate D2E/DX2                !
 ! D48   D(10,8,9,31)         -151.297          estimate D2E/DX2                !
 ! D49   D(10,8,9,32)           88.1002         estimate D2E/DX2                !
 ! D50   D(10,8,9,33)          -32.0342         estimate D2E/DX2                !
 ! D51   D(7,8,10,11)           -3.2503         estimate D2E/DX2                !
 ! D52   D(7,8,10,34)          176.8667         estimate D2E/DX2                !
 ! D53   D(9,8,10,11)         -178.5802         estimate D2E/DX2                !
 ! D54   D(9,8,10,34)            1.5368         estimate D2E/DX2                !
 ! D55   D(8,10,11,4)            1.0802         estimate D2E/DX2                !
 ! D56   D(8,10,11,12)         178.7031         estimate D2E/DX2                !
 ! D57   D(34,10,11,4)        -179.0366         estimate D2E/DX2                !
 ! D58   D(34,10,11,12)         -1.4137         estimate D2E/DX2                !
 ! D59   D(4,11,12,35)         160.7596         estimate D2E/DX2                !
 ! D60   D(4,11,12,36)         -80.0639         estimate D2E/DX2                !
 ! D61   D(4,11,12,37)          42.8592         estimate D2E/DX2                !
 ! D62   D(10,11,12,35)        -16.771          estimate D2E/DX2                !
 ! D63   D(10,11,12,36)        102.4055         estimate D2E/DX2                !
 ! D64   D(10,11,12,37)       -134.6715         estimate D2E/DX2                !
 ! D65   D(3,13,14,15)           0.1471         estimate D2E/DX2                !
 ! D66   D(3,13,14,16)         179.8653         estimate D2E/DX2                !
 ! D67   D(20,13,14,15)       -179.3919         estimate D2E/DX2                !
 ! D68   D(20,13,14,16)          0.3263         estimate D2E/DX2                !
 ! D69   D(3,13,20,18)         179.4368         estimate D2E/DX2                !
 ! D70   D(3,13,20,21)           4.3867         estimate D2E/DX2                !
 ! D71   D(14,13,20,18)         -1.0226         estimate D2E/DX2                !
 ! D72   D(14,13,20,21)       -176.0727         estimate D2E/DX2                !
 ! D73   D(13,14,16,17)          0.7399         estimate D2E/DX2                !
 ! D74   D(13,14,16,38)       -179.5795         estimate D2E/DX2                !
 ! D75   D(15,14,16,17)       -179.5303         estimate D2E/DX2                !
 ! D76   D(15,14,16,38)          0.1503         estimate D2E/DX2                !
 ! D77   D(14,16,17,18)         -1.0815         estimate D2E/DX2                !
 ! D78   D(14,16,17,39)        179.3694         estimate D2E/DX2                !
 ! D79   D(38,16,17,18)        179.2395         estimate D2E/DX2                !
 ! D80   D(38,16,17,39)         -0.3096         estimate D2E/DX2                !
 ! D81   D(16,17,18,19)        178.7018         estimate D2E/DX2                !
 ! D82   D(16,17,18,20)          0.3683         estimate D2E/DX2                !
 ! D83   D(39,17,18,19)         -1.7382         estimate D2E/DX2                !
 ! D84   D(39,17,18,20)        179.9283         estimate D2E/DX2                !
 ! D85   D(17,18,20,13)          0.6764         estimate D2E/DX2                !
 ! D86   D(17,18,20,21)        175.9164         estimate D2E/DX2                !
 ! D87   D(19,18,20,13)       -177.6837         estimate D2E/DX2                !
 ! D88   D(19,18,20,21)         -2.4437         estimate D2E/DX2                !
 ! D89   D(2,22,23,24)         179.3137         estimate D2E/DX2                !
 ! D90   D(2,22,23,25)           1.4065         estimate D2E/DX2                !
 ! D91   D(43,22,23,24)         -0.9639         estimate D2E/DX2                !
 ! D92   D(43,22,23,25)       -178.8711         estimate D2E/DX2                !
 ! D93   D(22,23,24,40)        159.1938         estimate D2E/DX2                !
 ! D94   D(22,23,24,41)         38.6436         estimate D2E/DX2                !
 ! D95   D(22,23,24,42)        -81.6134         estimate D2E/DX2                !
 ! D96   D(25,23,24,40)        -23.136          estimate D2E/DX2                !
 ! D97   D(25,23,24,41)       -143.6862         estimate D2E/DX2                !
 ! D98   D(25,23,24,42)         96.0568         estimate D2E/DX2                !
 ! D99   D(22,23,25,1)          -2.6562         estimate D2E/DX2                !
 ! D100  D(24,23,25,1)         179.4808         estimate D2E/DX2                !
 --------------------------------------------------------------------------------
 Trust Radius=3.00D-01 FncErr=1.00D-07 GrdErr=1.00D-06 EigMax=2.50D+02 EigMin=1.00D-04
 Number of steps in this run=    231 maximum allowed number of steps=    258.
 GradGradGradGradGradGradGradGradGradGradGradGradGradGradGradGradGradGrad

 Leave Link  103 at Fri Jan 24 16:52:55 2025, MaxMem=  3221225472 cpu:               0.4 elap:               0.0
 (Enter /software/gaussian/G16-C.01/avx2/g16/l202.exe)
                          Input orientation:                          
 ---------------------------------------------------------------------
 Center     Atomic      Atomic             Coordinates (Angstroms)
 Number     Number       Type             X           Y           Z
 ---------------------------------------------------------------------
      1          6           0       -0.232150    2.647495    0.870867
      2          6           0       -0.984903    1.503273    0.759421
      3          5           0       -0.542907    0.154691    0.098503
      4          6           0        0.989928   -0.119071   -0.190111
      5          6           0        1.444027   -0.303899   -1.536559
      6          6           0        0.495577   -0.247970   -2.696977
      7          6           0        2.795632   -0.531020   -1.745165
      8          6           0        3.722754   -0.545137   -0.722499
      9          6           0        5.170042   -0.815404   -0.994268
     10          6           0        3.279196   -0.400901    0.603619
     11          6           0        1.908902   -0.174536    0.885396
     12          6           0        1.482003   -0.056951    2.317936
     13          6           0       -1.626083   -0.978923   -0.289433
     14          6           0       -1.331446   -2.317098   -0.081943
     15          9           0       -0.153496   -2.719993    0.444427
     16          6           0       -2.278430   -3.306909   -0.418056
     17          6           0       -3.499009   -2.952709   -0.969936
     18          6           0       -3.804178   -1.593966   -1.175204
     19          9           0       -4.980487   -1.228377   -1.737189
     20          6           0       -2.872928   -0.596143   -0.829852
     21          9           0       -3.171027    0.695856   -1.121041
     22          7           0       -2.213582    1.727292    1.345408
     23          6           0       -2.115110    3.004872    1.765459
     24          6           0       -3.235787    3.710728    2.463491
     25          8           0       -0.957125    3.565984    1.457532
     26          1           0        0.781055    2.799843    0.502485
     27          1           0       -0.124397   -1.173598   -2.717747
     28          1           0        1.056782   -0.164238   -3.667447
     29          1           0       -0.160407    0.652667   -2.629323
     30          1           0        3.159750   -0.671444   -2.768992
     31          1           0        5.468471   -0.409898   -1.985419
     32          1           0        5.353579   -1.915307   -0.976664
     33          1           0        5.820496   -0.325674   -0.218814
     34          1           0        3.988526   -0.461137    1.414961
     35          1           0        2.269695   -0.464199    3.015484
     36          1           0        1.320208    1.020261    2.579061
     37          1           0        0.570616   -0.649726    2.502728
     38          1           0       -2.044015   -4.348269   -0.246931
     39          1           0       -4.225426   -3.694089   -1.240066
     40          1           0       -2.841396    4.574992    3.037896
     41          1           0       -3.744054    3.003846    3.153026
     42          1           0       -3.962654    4.088798    1.713275
     43          1           0       -3.054562    1.024954    1.442743
 ---------------------------------------------------------------------
                    Distance matrix (angstroms):
                    1          2          3          4          5
     1  C    0.000000
     2  C    1.374155   0.000000
     3  B    2.628153   1.565518   0.000000
     4  C    3.205158   2.726457   1.583612   0.000000
     5  C    4.161249   3.799617   2.613740   1.432930   0.000000
     6  C    4.652184   4.147934   3.009201   2.558392   1.499751
     7  C    5.110190   4.970285   3.874939   2.418359   1.386339
     8  C    5.326630   5.343604   4.399962   2.816613   2.431767
     9  C    6.682371   6.806984   5.896865   4.313340   3.799856
    10  C    4.657649   4.672547   3.895163   2.439300   2.820925
    11  C    3.542340   3.347390   2.595950   1.415735   2.469557
    12  C    3.513738   3.308911   3.011799   2.556618   3.862584
    13  C    4.054658   2.769929   1.615192   2.755490   3.381798
    14  C    5.173344   3.927242   2.600788   3.198719   3.724531
    15  F    5.384976   4.315836   2.921492   2.911160   3.509116
    16  C    6.426782   5.118352   3.906604   4.571262   4.911803
    17  C    6.739675   5.400665   4.419959   5.365462   5.636564
    18  C    5.910650   4.613456   3.913569   5.111670   5.416503
    19  F    6.661160   5.446069   4.997476   6.266567   6.493788
    20  C    4.515235   3.240058   2.618128   3.944429   4.384169
    21  F    4.051369   2.994528   2.947399   4.341000   4.740346
    22  N    2.235629   1.379572   2.611322   4.003667   5.080313
    23  C    2.115078   2.131732   3.657061   4.819184   5.875266
    24  C    3.562128   3.583740   5.048779   6.290122   7.349714
    25  O    1.308964   2.177822   3.695329   4.481671   5.450331
    26  H    1.088806   2.205837   2.985449   3.007221   3.772327
    27  H    5.243139   4.471778   3.141778   2.956804   2.147448
    28  H    5.492129   5.152303   4.104035   3.478271   2.170287
    29  H    4.029369   3.589834   2.799165   2.805103   2.164107
    30  H    5.980712   5.861504   4.755491   3.415241   2.144221
    31  H    7.071287   7.269140   6.387343   4.833742   4.050785
    32  H    7.445328   7.407904   6.341090   4.783993   4.265527
    33  H    6.830935   7.114453   6.389393   4.835070   4.570603
    34  H    5.270079   5.387359   4.758801   3.418312   3.900086
    35  H    4.532246   4.421897   4.099089   3.468827   4.629095
    36  H    2.824116   2.976227   3.220803   3.012553   4.325166
    37  H    3.765511   3.177132   2.768992   2.776473   4.147082
    38  H    7.312526   6.031170   4.759128   5.205204   5.494225
    39  H    7.785755   6.442942   5.492342   6.409607   6.612411
    40  H    3.901208   4.251291   5.784647   6.865370   7.943177
    41  H    4.203416   3.948921   5.262617   6.583294   7.736250
    42  H    4.087011   4.057311   5.457045   6.771787   7.686962
    43  H    3.305404   2.231414   2.978716   4.509202   5.556923
                    6          7          8          9         10
     6  C    0.000000
     7  C    2.505257   0.000000
     8  C    3.794936   1.380434   0.000000
     9  C    5.007177   2.506500   1.497179   0.000000
    10  C    4.320400   2.401572   1.405752   2.510051   0.000000
    11  C    3.851788   2.798789   2.452087   3.818230   1.417161
    12  C    5.114574   4.296411   3.808351   5.014736   2.507406
    13  C    3.291201   4.676680   5.383844   6.834534   5.019304
    14  C    3.802329   4.794701   5.393988   6.734744   5.039824
    15  F    4.049766   4.275894   4.595328   5.834155   4.145709
    16  C    4.716535   5.934045   6.613191   7.875237   6.354204
    17  C    5.123963   6.788819   7.616528   8.928668   7.411603
    18  C    4.755564   6.709113   7.613126   9.009746   7.400122
    19  F    5.645323   7.807329   8.788789  10.186055   8.624759
    20  C    3.867067   5.742352   6.596753   8.047638   6.319936
    21  F    4.101020   6.123379   7.015919   8.477819   6.766292
    22  N    5.251865   6.304271   6.684330   8.152134   5.937177
    23  C    6.108192   6.995885   7.271394   8.676638   6.484420
    24  C    7.498320   8.490184   8.756953  10.153814   7.925252
    25  O    5.823790   6.412947   6.599631   7.921494   5.866154
    26  H    4.428004   4.495008   4.619856   5.879923   4.061490
    27  H    1.114265   3.144104   4.379104   5.579406   4.817985
    28  H    1.124177   2.617880   3.990640   4.948617   4.820491
    29  H    1.116262   3.304696   4.488836   5.765616   4.836609
    30  H    2.698579   1.095684   2.126279   2.685451   3.385553
    31  H    5.026152   2.686347   2.158884   1.111699   3.390593
    32  H    5.416611   3.008312   2.145124   1.115250   3.015591
    33  H    5.873848   3.394366   2.168498   1.124391   2.672127
    34  H    5.399459   3.378501   2.155557   2.706634   1.079376
    35  H    5.985520   4.790078   4.011291   4.961197   2.615376
    36  H    5.488624   4.825171   4.372985   5.564132   3.124053
    37  H    5.215742   4.796810   4.510988   5.780239   3.317369
    38  H    5.409686   6.343365   6.924277   8.067358   6.681446
    39  H    6.023802   7.717213   8.564890   9.829652   8.400214
    40  H    8.202751   8.984715   9.134789  10.464122   8.255112
    41  H    7.922835   8.902530   9.130619  10.547408   8.210835
    42  H    7.624545   8.886953   9.299023  10.713921   8.592620
    43  H    5.600099   6.841680   7.285978   8.773258   6.546273
                   11         12         13         14         15
    11  C    0.000000
    12  C    1.499413   0.000000
    13  C    3.810955   4.160361   0.000000
    14  C    4.003271   4.333957   1.385849   0.000000
    15  F    3.305645   3.643719   2.395493   1.351649   0.000000
    16  C    5.389295   5.673512   2.421079   1.410488   2.367212
    17  C    6.356572   6.633702   2.804776   2.427109   3.639647
    18  C    6.236997   6.519827   2.430425   2.798668   4.149532
    19  F    7.446624   7.718812   3.662001   4.152186   5.503109
    20  C    5.097620   5.400437   1.411805   2.428419   3.678292
    21  F    5.530737   5.834721   2.425553   3.679902   4.819150
    22  N    4.563270   4.217426   3.215814   4.378652   4.983379
    23  C    5.203443   4.755966   4.509141   5.687741   6.194121
    24  C    6.637280   6.039382   5.671205   6.814722   7.411566
    25  O    4.746888   4.451438   4.914832   6.092681   6.417610
    26  H    3.203997   3.456655   4.549783   5.566625   5.598692
    27  H    4.256180   5.402362   2.861759   3.116411   3.520160
    28  H    4.631910   6.001427   4.390041   4.816044   4.990407
    29  H    4.161677   5.260840   3.207083   4.084114   4.563203
    30  H    3.894367   5.391593   5.398792   5.486279   5.049774
    31  H    4.579028   5.876679   7.316615   7.314336   6.545778
    32  H    4.285248   5.412669   7.075648   6.756592   5.744119
    33  H    4.067271   5.032875   7.475511   7.425280   6.470026
    34  H    2.165044   2.694696   5.890407   5.829873   4.816712
    35  H    2.179759   1.128222   5.134638   5.098579   4.191754
    36  H    2.154670   1.120156   4.572266   5.024955   4.551699
    37  H    2.152343   1.102796   3.567915   3.616420   3.007814
    38  H    5.858990   6.117741   3.395433   2.158849   2.589077
    39  H    7.384769   7.646103   3.877165   3.407707   4.512980
    40  H    7.053836   6.376913   6.587418   7.714549   8.195590
    41  H    6.870238   6.113716   5.674396   6.678185   7.279488
    42  H    7.303188   6.870016   5.928928   7.154129   7.904384
    43  H    5.136671   4.745198   3.009403   4.057476   4.841224
                   16         17         18         19         20
    16  C    0.000000
    17  C    1.385583   0.000000
    18  C    2.415648   1.407638   0.000000
    19  F    3.655341   2.399328   1.353952   0.000000
    20  C    2.805576   2.442336   1.407887   2.380081   0.000000
    21  F    4.160895   3.666393   2.376363   2.712279   1.357541
    22  N    5.334529   5.377319   4.462537   5.088630   3.250361
    23  C    6.680793   6.700026   5.713998   6.196720   4.503026
    24  C    7.646377   7.500607   6.457782   6.714496   5.433867
    25  O    7.245712   7.405886   6.454618   7.027061   5.121106
    26  H    6.892044   7.319756   6.568452   7.378216   5.163278
    27  H    3.805188   4.196199   4.012098   4.954402   3.384084
    28  H    5.617701   5.983926   5.646621   6.427045   4.866324
    29  H    5.005395   5.186383   4.520939   5.250467   3.486459
    30  H    6.484318   7.264973   7.203297   8.224247   6.337124
    31  H    8.418063   9.376182   9.382989  10.483904   8.423120
    32  H    7.777929   8.913168   9.165544  10.384758   8.332897
    33  H    8.632501   9.711780   9.754876  10.944477   8.719068
    34  H    7.122718   8.243716   8.289662   9.537709   7.220593
    35  H    6.368331   7.440040   7.465264   8.702701   6.422662
    36  H    6.376308   7.183642   6.869353   7.961478   5.640552
    37  H    4.869154   5.824515   5.792892   7.009028   4.792385
    38  H    1.081047   2.141805   3.397947   4.536239   3.886559
    39  H    2.148581   1.072518   2.142935   2.626210   3.405112
    40  H    8.624669   8.553448   7.532145   7.813850   6.457640
    41  H    7.397723   7.248408   6.314829   6.584428   5.438943
    42  H    7.878811   7.549663   6.376694   6.419816   5.440925
    43  H    4.778075   4.673367   3.778137   4.347259   2.797434
                   21         22         23         24         25
    21  F    0.000000
    22  N    2.839707   0.000000
    23  C    3.844269   1.348462   0.000000
    24  C    4.684284   2.495802   1.497130   0.000000
    25  O    4.448374   2.229808   1.323101   2.495036   0.000000
    26  H    4.762515   3.290705   3.166214   4.561828   2.126113
    27  H    3.914879   5.411939   6.443732   7.770625   6.371030
    28  H    5.009821   6.277092   7.044191   8.427925   6.650999
    29  H    3.367582   4.600960   5.354236   6.689279   5.081787
    30  H    6.683112   7.180175   7.867699   9.353353   7.264156
    31  H    8.752757   8.641523   9.123620  10.608320   8.303603
    32  H    8.916722   8.713351   9.354610  10.828858   8.706024
    33  H    9.094230   8.438476   8.831972  10.271493   7.993203
    34  H    7.683042   6.577249   7.027833   8.408007   6.378008
    35  H    6.932389   5.262277   5.729182   6.931453   5.392769
    36  H    5.828137   3.809129   4.049943   5.292358   3.595105
    37  H    5.379794   3.839448   4.594865   5.788247   4.604199
    38  H    5.241891   6.283052   7.623874   8.585694   8.168349
    39  H    4.516364   6.334316   7.639548   8.338287   8.406395
    40  H    5.696763   3.371655   2.147525   1.110152   2.658218
    41  H    4.891097   2.690616   2.139813   1.110619   3.310237
    42  H    4.491333   2.961635   2.142670   1.110899   3.061362
    43  H    2.587443   1.100000   2.215128   2.878915   3.294889
                   26         27         28         29         30
    26  H    0.000000
    27  H    5.194032   0.000000
    28  H    5.123489   1.820967   0.000000
    29  H    3.912152   1.828759   1.796270   0.000000
    30  H    5.330158   3.322711   2.342424   3.577180   0.000000
    31  H    6.201933   5.692075   4.727850   5.764367   2.452058
    32  H    6.732645   5.795665   5.363676   6.303159   3.093950
    33  H    5.973701   6.504260   5.883205   6.522186   3.701694
    34  H    4.664169   5.873926   5.874873   5.900037   4.270429
    35  H    4.380090   6.253388   6.798728   6.246330   5.856220
    36  H    2.787430   5.912366   6.363276   5.427210   5.903173
    37  H    3.993093   5.292527   6.208310   5.344958   5.873255
    38  H    7.722574   4.457398   6.230649   5.850909   6.852664
    39  H    8.382869   5.035360   6.801010   6.111358   8.124950
    40  H    4.764621   8.576467   9.089429   7.395249   9.861987
    41  H    5.248199   8.063431   8.922087   7.197647   9.810227
    42  H    5.062626   7.877751   8.499130   6.717308   9.668466
    43  H    4.329697   5.543390   6.665686   5.009636   7.696373
                   31         32         33         34         35
    31  H    0.000000
    32  H    1.815776   0.000000
    33  H    1.803305   1.821889   0.000000
    34  H    3.708833   3.114137   2.458390   0.000000
    35  H    5.936678   5.249124   4.805004   2.348631   0.000000
    36  H    6.331502   6.126078   5.467380   3.266434   1.815382
    37  H    6.647553   6.048521   5.922250   3.591785   1.784435
    38  H    8.658554   7.821523   8.833606   7.366358   6.658637
    39  H   10.262217   9.746321  10.644704   9.217925   8.410023
    40  H   10.914976  11.198138  10.471441   8.639696   7.177548
    41  H   11.087284  11.136397  10.674063   8.649842   6.943445
    42  H   11.084435  11.405141  10.905528   9.165814   7.827368
    43  H    9.298020   9.230142   9.129711   7.198217   5.747939
                   36         37         38         39         40
    36  H    0.000000
    37  H    1.832095   0.000000
    38  H    6.937242   5.298692   0.000000
    39  H    8.219785   6.802842   2.484516   0.000000
    40  H    5.492321   6.263059   9.542038   9.412449   0.000000
    41  H    5.469076   5.691032   8.276680   8.024544   1.815639
    42  H    6.170423   6.605102   8.871734   8.328540   1.802284
    43  H    4.519939   4.131590   5.722563   5.553175   3.897784
                   41         42         43
    41  H    0.000000
    42  H    1.815982   0.000000
    43  H    2.704899   3.207016   0.000000
 Stoichiometry    C19H18BF3NO(1+)
 Framework group  C1[X(C19H18BF3NO)]
 Deg. of freedom   123
 Full point group                 C1      NOp   1
 Largest Abelian subgroup         C1      NOp   1
 Largest concise Abelian subgroup C1      NOp   1
                         Standard orientation:                         
 ---------------------------------------------------------------------
 Center     Atomic      Atomic             Coordinates (Angstroms)
 Number     Number       Type             X           Y           Z
 ---------------------------------------------------------------------
      1          6           0       -0.095524    2.813010   -0.555565
      2          6           0       -0.693000    1.672666   -0.075004
      3          5           0       -0.046553    0.250411    0.025704
      4          6           0        1.523785    0.085525   -0.095453
      5          6           0        2.083554   -0.678263   -1.170895
      6          6           0        1.212721   -1.338276   -2.198166
      7          6           0        3.463495   -0.788641   -1.245156
      8          6           0        4.317003   -0.164159   -0.357942
      9          6           0        5.801102   -0.329572   -0.465799
     10          6           0        3.773983    0.556218    0.720169
     11          6           0        2.370880    0.699682    0.858248
     12          6           0        1.840732    1.452377    2.041731
     13          6           0       -0.954610   -1.064034    0.263434
     14          6           0       -0.511707   -2.066681    1.111439
     15          9           0        0.670205   -1.986881    1.762339
     16          6           0       -1.305943   -3.213255    1.321279
     17          6           0       -2.522426   -3.353368    0.672912
     18          6           0       -2.978432   -2.333458   -0.183411
     19          9           0       -4.151821   -2.462678   -0.846470
     20          6           0       -2.201362   -1.177618   -0.389178
     21          9           0       -2.636584   -0.256574   -1.286496
     22          7           0       -1.975311    1.984837    0.326801
     23          6           0       -2.062182    3.301761    0.050185
     24          6           0       -3.304072    4.097427    0.307132
     25          8           0       -0.964485    3.790557   -0.503651
     26          1           0        0.912997    2.901428   -0.956272
     27          1           0        0.713965   -2.227849   -1.749291
     28          1           0        1.821133   -1.670394   -3.083212
     29          1           0        0.447947   -0.624129   -2.586952
     30          1           0        3.907767   -1.366702   -2.063075
     31          1           0        6.111055   -0.432761   -1.528416
     32          1           0        6.116997   -1.237773    0.099147
     33          1           0        6.334695    0.565443   -0.043329
     34          1           0        4.431196    1.005999    1.448744
     35          1           0        2.625608    1.559212    2.845123
     36          1           0        1.531077    2.482546    1.729297
     37          1           0        0.999120    0.909577    2.503483
     38          1           0       -0.956825   -3.988000    1.989523
     39          1           0       -3.133075   -4.223667    0.814270
     40          1           0       -3.057076    5.177959    0.369449
     41          1           0       -3.765190    3.763474    1.260715
     42          1           0       -4.021708    3.947892   -0.527574
     43          1           0       -2.728050    1.314519    0.767320
 ---------------------------------------------------------------------
 Rotational constants (GHZ):           0.2644796           0.1838629           0.1292299
 Leave Link  202 at Fri Jan 24 16:52:55 2025, MaxMem=  3221225472 cpu:               0.1 elap:               0.0
 (Enter /software/gaussian/G16-C.01/avx2/g16/l301.exe)
 Standard basis: def2SVP (5D, 7F)
 Ernie: Thresh=  0.10000D-02 Tol=  0.10000D-05 Strict=F.
 There are   465 symmetry adapted cartesian basis functions of A   symmetry.
 There are   440 symmetry adapted basis functions of A   symmetry.
   440 basis functions,   751 primitive gaussians,   465 cartesian basis functions
    89 alpha electrons       89 beta electrons
       nuclear repulsion energy      2185.2762013492 Hartrees.
 IExCor= 1009 DFT=T Ex+Corr=PBE1PBE ExCW=0 ScaHFX=  0.250000
 ScaDFX=  0.750000  0.750000  1.000000  1.000000 ScalE2=  1.000000  1.000000
 IRadAn=      5 IRanWt=     -1 IRanGd=            0 ICorTp=0 IEmpDi=141
 NAtoms=   43 NActive=   43 NUniq=   43 SFac= 1.00D+00 NAtFMM=   60 NAOKFM=F Big=F
 Integral buffers will be    131072 words long.
 Raffenetti 2 integral format.
 Two-electron integral symmetry is turned on.
 R6Disp:  Grimme-D3(BJ) Dispersion energy=       -0.0509598846 Hartrees.
 Nuclear repulsion after empirical dispersion term =     2185.2252414646 Hartrees.
 Leave Link  301 at Fri Jan 24 16:52:55 2025, MaxMem=  3221225472 cpu:               1.6 elap:               0.1
 (Enter /software/gaussian/G16-C.01/avx2/g16/l302.exe)
 NPDir=0 NMtPBC=     1 NCelOv=     1 NCel=       1 NClECP=     1 NCelD=      1
         NCelK=      1 NCelE2=     1 NClLst=     1 CellRange=     0.0.
 One-electron integrals computed using PRISM.
 One-electron integral symmetry used in STVInt
   1 Symmetry operations used in ECPInt.
 ECPInt:  NShTT=   20910 NPrTT=   76624 LenC2=   18543 LenP2D=   45938.
 LDataN:  DoStor=T MaxTD1= 4 Len=   56
 NBasis=   440 RedAO= T EigKep=  1.95D-04  NBF=   440
 NBsUse=   440 1.00D-06 EigRej= -1.00D+00 NBFU=   440
 Precomputing XC quadrature grid using
 IXCGrd= 4 IRadAn=           5 IRanWt=          -1 IRanGd=           0 AccXCQ= 0.00D+00.
 Generated NRdTot=       0 NPtTot=           0 NUsed=           0 NTot=          32
 NSgBfM=   462   462   462   462   462 MxSgAt=    43 MxSgA2=    43.
 Leave Link  302 at Fri Jan 24 16:52:55 2025, MaxMem=  3221225472 cpu:              11.6 elap:               0.5
 (Enter /software/gaussian/G16-C.01/avx2/g16/l303.exe)
 DipDrv:  MaxL=1.
 Leave Link  303 at Fri Jan 24 16:52:55 2025, MaxMem=  3221225472 cpu:               2.2 elap:               0.1
 (Enter /software/gaussian/G16-C.01/avx2/g16/l401.exe)
 ExpMin= 8.36D-02 ExpMax= 2.89D+03 ExpMxC= 4.35D+02 IAcc=3 IRadAn=         5 AccDes= 0.00D+00
 Harris functional with IExCor= 1009 and IRadAn=       5 diagonalized for initial guess.
 HarFok:  IExCor= 1009 AccDes= 0.00D+00 IRadAn=         5 IDoV= 1 UseB2=F ITyADJ=14
 ICtDFT=  3500011 ScaDFX=  1.000000  1.000000  1.000000  1.000000
 FoFCou: FMM=F IPFlag=           0 FMFlag=      100000 FMFlg1=           0
         NFxFlg=           0 DoJE=T BraDBF=F KetDBF=T FulRan=T
         wScrn=  0.000000 ICntrl=       500 IOpCl=  0 I1Cent=   200000004 NGrid=           0
         NMat0=    1 NMatS0=      1 NMatT0=    0 NMatD0=    1 NMtDS0=    0 NMtDT0=    0
 Petite list used in FoFCou.
 Harris En= -1187.07592678161    
 JPrj=0 DoOrth=F DoCkMO=F.
 Leave Link  401 at Fri Jan 24 16:52:57 2025, MaxMem=  3221225472 cpu:              29.7 elap:               1.2
 (Enter /software/gaussian/G16-C.01/avx2/g16/l502.exe)
 Integral symmetry usage will be decided dynamically.
 Closed shell SCF:
 Using DIIS extrapolation, IDIIS=  1040.
 NGot=  3221225472 LenX=  3220775940 LenY=  3220559250
 Requested convergence on RMS density matrix=1.00D-08 within 128 cycles.
 Requested convergence on MAX density matrix=1.00D-06.
 Requested convergence on             energy=1.00D-06.
 No special actions if energy rises.
 Fock matrices will be formed incrementally for  20 cycles.
 Integral accuracy reduced to 1.0D-05 until final iterations.

 Cycle   1  Pass 0  IDiag  1:
 FoFJK:  IHMeth= 1 ICntrl=       0 DoSepK=F KAlg= 0 I1Cent=           0 FoldK=F
 IRaf= 810000000 NMat=       1 IRICut=       1 DoRegI=T DoRafI=F ISym2E= 0 IDoP0=0 IntGTp=1.
 FoFCou: FMM=F IPFlag=           0 FMFlag=      100000 FMFlg1=           0
         NFxFlg=           0 DoJE=F BraDBF=F KetDBF=F FulRan=T
         wScrn=  0.000000 ICntrl=         0 IOpCl=  0 I1Cent=           0 NGrid=           0
         NMat0=    1 NMatS0=      1 NMatT0=    0 NMatD0=    1 NMtDS0=    0 NMtDT0=    0
 Symmetry not used in FoFCou.
 E= -1186.39125458908    
 DIIS: error= 1.97D-02 at cycle   1 NSaved=   1.
 NSaved= 1 IEnMin= 1 EnMin= -1186.39125458908     IErMin= 1 ErrMin= 1.97D-02
 ErrMax= 1.97D-02  0.00D+00 EMaxC= 1.00D-01 BMatC= 4.00D-01 BMatP= 4.00D-01
 IDIUse=3 WtCom= 8.03D-01 WtEn= 1.97D-01
 Coeff-Com:  0.100D+01
 Coeff-En:   0.100D+01
 Coeff:      0.100D+01
 Gap=     0.188 Goal=   None    Shift=    0.000
 GapD=    0.188 DampG=1.000 DampE=0.500 DampFc=0.5000 IDamp=-1.
 Damping current iteration by 5.00D-01
 RMSDP=5.09D-03 MaxDP=3.30D-01              OVMax= 9.63D-01

 Cycle   2  Pass 0  IDiag  1:
 RMSU=  2.49D-03    CP:  9.69D-01
 E= -1186.24352218582     Delta-E=        0.147732403266 Rises=F Damp=T
 DIIS: error= 1.35D-02 at cycle   2 NSaved=   2.
 NSaved= 2 IEnMin= 1 EnMin= -1186.39125458908     IErMin= 2 ErrMin= 1.35D-02
 ErrMax= 1.35D-02  0.00D+00 EMaxC= 1.00D-01 BMatC= 1.27D-01 BMatP= 4.00D-01
 IDIUse=3 WtCom= 8.65D-01 WtEn= 1.35D-01
 Coeff-Com:  0.283D+00 0.717D+00
 Coeff-En:   0.615D+00 0.385D+00
 Coeff:      0.328D+00 0.672D+00
 Gap=     0.015 Goal=   None    Shift=    0.000
 RMSDP=2.61D-03 MaxDP=2.02D-01 DE= 1.48D-01 OVMax= 7.22D-01

 Cycle   3  Pass 0  IDiag  1:
 RMSU=  2.27D-03    CP:  9.55D-01  4.89D-01
 E= -1186.62496092220     Delta-E=       -0.381438736386 Rises=F Damp=F
 DIIS: error= 1.79D-02 at cycle   3 NSaved=   3.
 NSaved= 3 IEnMin= 3 EnMin= -1186.62496092220     IErMin= 2 ErrMin= 1.35D-02
 ErrMax= 1.79D-02  0.00D+00 EMaxC= 1.00D-01 BMatC= 1.78D-01 BMatP= 1.27D-01
 IDIUse=2 WtCom= 0.00D+00 WtEn= 1.00D+00
 Coeff-En:   0.000D+00 0.200D+00 0.800D+00
 Coeff:      0.000D+00 0.200D+00 0.800D+00
 Gap=     0.327 Goal=   None    Shift=    0.000
 RMSDP=3.73D-03 MaxDP=3.70D-01 DE=-3.81D-01 OVMax= 9.64D-01

 Cycle   4  Pass 0  IDiag  1:
 RMSU=  1.59D-03    CP:  9.49D-01  1.48D+00 -9.00D-03
 E= -1185.41228140188     Delta-E=        1.212679520321 Rises=F Damp=F
 DIIS: error= 3.46D-02 at cycle   4 NSaved=   4.
 NSaved= 4 IEnMin= 3 EnMin= -1186.62496092220     IErMin= 2 ErrMin= 1.35D-02
 ErrMax= 3.46D-02  0.00D+00 EMaxC= 1.00D-01 BMatC= 7.27D-01 BMatP= 1.27D-01
 IDIUse=2 WtCom= 0.00D+00 WtEn= 1.00D+00
 Coeff-En:   0.000D+00 0.000D+00 0.812D+00 0.188D+00
 Coeff:      0.000D+00 0.000D+00 0.812D+00 0.188D+00
 Gap=    -0.070 Goal=   None    Shift=    0.000
 RMSDP=3.05D-03 MaxDP=2.97D-01 DE= 1.21D+00 OVMax= 9.87D-01

 Cycle   5  Pass 0  IDiag  1:
 RMSU=  1.40D-03    CP:  9.55D-01  6.65D-01  5.36D-01  1.82D-01
 E= -1186.80674617916     Delta-E=       -1.394464777281 Rises=F Damp=F
 DIIS: error= 6.06D-03 at cycle   5 NSaved=   5.
 NSaved= 5 IEnMin= 5 EnMin= -1186.80674617916     IErMin= 5 ErrMin= 6.06D-03
 ErrMax= 6.06D-03  0.00D+00 EMaxC= 1.00D-01 BMatC= 2.82D-02 BMatP= 1.27D-01
 IDIUse=3 WtCom= 9.39D-01 WtEn= 6.06D-02
 Coeff-Com: -0.170D-01 0.144D+00 0.310D+00 0.106D-01 0.552D+00
 Coeff-En:   0.000D+00 0.000D+00 0.299D-01 0.000D+00 0.970D+00
 Coeff:     -0.160D-01 0.135D+00 0.293D+00 0.992D-02 0.577D+00
 Gap=     0.145 Goal=   None    Shift=    0.000
 RMSDP=5.59D-04 MaxDP=2.69D-02 DE=-1.39D+00 OVMax= 5.37D-02

 Cycle   6  Pass 0  IDiag  1:
 RMSU=  3.53D-04    CP:  9.54D-01  6.43D-01  6.49D-01  9.20D-02  7.76D-01
 E= -1186.82845555114     Delta-E=       -0.021709371975 Rises=F Damp=F
 DIIS: error= 3.31D-03 at cycle   6 NSaved=   6.
 NSaved= 6 IEnMin= 6 EnMin= -1186.82845555114     IErMin= 6 ErrMin= 3.31D-03
 ErrMax= 3.31D-03  0.00D+00 EMaxC= 1.00D-01 BMatC= 5.29D-03 BMatP= 2.82D-02
 IDIUse=3 WtCom= 9.67D-01 WtEn= 3.31D-02
 Coeff-Com: -0.359D-01 0.916D-01 0.781D-01-0.209D-01 0.346D+00 0.541D+00
 Coeff-En:   0.000D+00 0.000D+00 0.000D+00 0.000D+00 0.126D+00 0.874D+00
 Coeff:     -0.347D-01 0.886D-01 0.755D-01-0.202D-01 0.339D+00 0.552D+00
 Gap=     0.125 Goal=   None    Shift=    0.000
 RMSDP=2.42D-04 MaxDP=8.76D-03 DE=-2.17D-02 OVMax= 3.06D-02

 Cycle   7  Pass 0  IDiag  1:
 RMSU=  1.24D-04    CP:  9.54D-01  6.75D-01  6.08D-01  7.58D-02  8.69D-01
                    CP:  7.07D-01
 E= -1186.83417771015     Delta-E=       -0.005722159015 Rises=F Damp=F
 DIIS: error= 9.09D-04 at cycle   7 NSaved=   7.
 NSaved= 7 IEnMin= 7 EnMin= -1186.83417771015     IErMin= 7 ErrMin= 9.09D-04
 ErrMax= 9.09D-04  0.00D+00 EMaxC= 1.00D-01 BMatC= 4.14D-04 BMatP= 5.29D-03
 IDIUse=3 WtCom= 9.91D-01 WtEn= 9.09D-03
 Coeff-Com: -0.151D-01 0.318D-01-0.167D-01-0.800D-02 0.691D-01 0.303D+00
 Coeff-Com:  0.636D+00
 Coeff-En:   0.000D+00 0.000D+00 0.000D+00 0.000D+00 0.000D+00 0.000D+00
 Coeff-En:   0.100D+01
 Coeff:     -0.150D-01 0.315D-01-0.165D-01-0.792D-02 0.685D-01 0.300D+00
 Coeff:      0.639D+00
 Gap=     0.124 Goal=   None    Shift=    0.000
 RMSDP=6.63D-05 MaxDP=2.64D-03 DE=-5.72D-03 OVMax= 8.43D-03

 Cycle   8  Pass 0  IDiag  1:
 RMSU=  4.07D-05    CP:  9.54D-01  6.80D-01  6.05D-01  7.54D-02  8.82D-01
                    CP:  8.14D-01  7.79D-01
 E= -1186.83457473557     Delta-E=       -0.000397025420 Rises=F Damp=F
 DIIS: error= 2.55D-04 at cycle   8 NSaved=   8.
 NSaved= 8 IEnMin= 8 EnMin= -1186.83457473557     IErMin= 8 ErrMin= 2.55D-04
 ErrMax= 2.55D-04  0.00D+00 EMaxC= 1.00D-01 BMatC= 7.04D-05 BMatP= 4.14D-04
 IDIUse=3 WtCom= 9.97D-01 WtEn= 2.55D-03
 Coeff-Com: -0.653D-02 0.950D-02-0.203D-01-0.139D-02 0.818D-02 0.138D+00
 Coeff-Com:  0.399D+00 0.474D+00
 Coeff-En:   0.000D+00 0.000D+00 0.000D+00 0.000D+00 0.000D+00 0.000D+00
 Coeff-En:   0.000D+00 0.100D+01
 Coeff:     -0.651D-02 0.948D-02-0.203D-01-0.139D-02 0.816D-02 0.137D+00
 Coeff:      0.398D+00 0.475D+00
 Gap=     0.124 Goal=   None    Shift=    0.000
 RMSDP=2.68D-05 MaxDP=8.45D-04 DE=-3.97D-04 OVMax= 2.66D-03

 Cycle   9  Pass 0  IDiag  1:
 RMSU=  1.96D-05    CP:  9.54D-01  6.81D-01  6.03D-01  7.65D-02  8.86D-01
                    CP:  8.21D-01  8.49D-01  6.57D-01
 E= -1186.83465034577     Delta-E=       -0.000075610202 Rises=F Damp=F
 DIIS: error= 8.53D-05 at cycle   9 NSaved=   9.
 NSaved= 9 IEnMin= 9 EnMin= -1186.83465034577     IErMin= 9 ErrMin= 8.53D-05
 ErrMax= 8.53D-05  0.00D+00 EMaxC= 1.00D-01 BMatC= 6.30D-06 BMatP= 7.04D-05
 IDIUse=1 WtCom= 1.00D+00 WtEn= 0.00D+00
 Coeff-Com: -0.159D-02 0.182D-02-0.870D-02 0.171D-04-0.415D-02 0.248D-01
 Coeff-Com:  0.945D-01 0.226D+00 0.667D+00
 Coeff:     -0.159D-02 0.182D-02-0.870D-02 0.171D-04-0.415D-02 0.248D-01
 Coeff:      0.945D-01 0.226D+00 0.667D+00
 Gap=     0.124 Goal=   None    Shift=    0.000
 RMSDP=1.22D-05 MaxDP=3.44D-04 DE=-7.56D-05 OVMax= 1.82D-03

 Cycle  10  Pass 0  IDiag  1:
 RMSU=  7.60D-06    CP:  9.54D-01  6.82D-01  6.02D-01  7.61D-02  8.89D-01
                    CP:  8.29D-01  8.62D-01  7.73D-01  7.99D-01
 E= -1186.83465754835     Delta-E=       -0.000007202578 Rises=F Damp=F
 DIIS: error= 3.98D-05 at cycle  10 NSaved=  10.
 NSaved=10 IEnMin=10 EnMin= -1186.83465754835     IErMin=10 ErrMin= 3.98D-05
 ErrMax= 3.98D-05  0.00D+00 EMaxC= 1.00D-01 BMatC= 1.39D-06 BMatP= 6.30D-06
 IDIUse=1 WtCom= 1.00D+00 WtEn= 0.00D+00
 Coeff-Com:  0.141D-03-0.782D-05-0.148D-02 0.406D-04-0.311D-02-0.107D-01
 Coeff-Com: -0.200D-01 0.367D-01 0.409D+00 0.590D+00
 Coeff:      0.141D-03-0.782D-05-0.148D-02 0.406D-04-0.311D-02-0.107D-01
 Coeff:     -0.200D-01 0.367D-01 0.409D+00 0.590D+00
 Gap=     0.124 Goal=   None    Shift=    0.000
 RMSDP=4.17D-06 MaxDP=1.62D-04 DE=-7.20D-06 OVMax= 4.87D-04

 Initial convergence to 1.0D-05 achieved.  Increase integral accuracy.
 Cycle  11  Pass 1  IDiag  1:
 E= -1186.83462241308     Delta-E=        0.000035135268 Rises=F Damp=F
 DIIS: error= 1.01D-04 at cycle   1 NSaved=   1.
 NSaved= 1 IEnMin= 1 EnMin= -1186.83462241308     IErMin= 1 ErrMin= 1.01D-04
 ErrMax= 1.01D-04  0.00D+00 EMaxC= 1.00D-01 BMatC= 3.66D-06 BMatP= 3.66D-06
 IDIUse=3 WtCom= 9.99D-01 WtEn= 1.01D-03
 Coeff-Com:  0.100D+01
 Coeff-En:   0.100D+01
 Coeff:      0.100D+01
 Gap=     0.124 Goal=   None    Shift=    0.000
 RMSDP=4.17D-06 MaxDP=1.62D-04 DE= 3.51D-05 OVMax= 2.87D-04

 Cycle  12  Pass 1  IDiag  1:
 RMSU=  8.77D-05    CP:  1.00D+00
 E= -1186.83462563508     Delta-E=       -0.000003221998 Rises=F Damp=F
 DIIS: error= 2.53D-05 at cycle   2 NSaved=   2.
 NSaved= 2 IEnMin= 2 EnMin= -1186.83462563508     IErMin= 2 ErrMin= 2.53D-05
 ErrMax= 2.53D-05  0.00D+00 EMaxC= 1.00D-01 BMatC= 2.38D-07 BMatP= 3.66D-06
 IDIUse=1 WtCom= 1.00D+00 WtEn= 0.00D+00
 Coeff-Com:  0.824D-01 0.918D+00
 Coeff:      0.824D-01 0.918D+00
 Gap=     0.124 Goal=   None    Shift=    0.000
 RMSDP=3.24D-06 MaxDP=1.29D-04 DE=-3.22D-06 OVMax= 2.99D-04

 Cycle  13  Pass 1  IDiag  1:
 RMSU=  3.05D-06    CP:  1.00D+00  1.01D+00
 E= -1186.83462529576     Delta-E=        0.000000339322 Rises=F Damp=F
 DIIS: error= 4.42D-05 at cycle   3 NSaved=   3.
 NSaved= 3 IEnMin= 2 EnMin= -1186.83462563508     IErMin= 2 ErrMin= 2.53D-05
 ErrMax= 4.42D-05  0.00D+00 EMaxC= 1.00D-01 BMatC= 5.78D-07 BMatP= 2.38D-07
 IDIUse=1 WtCom= 1.00D+00 WtEn= 0.00D+00
 Coeff-Com: -0.537D-02 0.612D+00 0.393D+00
 Coeff:     -0.537D-02 0.612D+00 0.393D+00
 Gap=     0.124 Goal=   None    Shift=    0.000
 RMSDP=1.89D-06 MaxDP=8.18D-05 DE= 3.39D-07 OVMax= 1.90D-04

 Cycle  14  Pass 1  IDiag  1:
 RMSU=  4.92D-07    CP:  1.00D+00  1.01D+00  4.03D-01
 E= -1186.83462586695     Delta-E=       -0.000000571193 Rises=F Damp=F
 DIIS: error= 3.56D-06 at cycle   4 NSaved=   4.
 NSaved= 4 IEnMin= 4 EnMin= -1186.83462586695     IErMin= 4 ErrMin= 3.56D-06
 ErrMax= 3.56D-06  0.00D+00 EMaxC= 1.00D-01 BMatC= 4.40D-09 BMatP= 2.38D-07
 IDIUse=1 WtCom= 1.00D+00 WtEn= 0.00D+00
 Coeff-Com: -0.400D-02 0.345D+00 0.228D+00 0.431D+00
 Coeff:     -0.400D-02 0.345D+00 0.228D+00 0.431D+00
 Gap=     0.124 Goal=   None    Shift=    0.000
 RMSDP=2.00D-07 MaxDP=1.03D-05 DE=-5.71D-07 OVMax= 1.67D-05

 Cycle  15  Pass 1  IDiag  1:
 RMSU=  1.61D-07    CP:  1.00D+00  1.01D+00  4.16D-01  7.74D-01
 E= -1186.83462587124     Delta-E=       -0.000000004292 Rises=F Damp=F
 DIIS: error= 7.11D-07 at cycle   5 NSaved=   5.
 NSaved= 5 IEnMin= 5 EnMin= -1186.83462587124     IErMin= 5 ErrMin= 7.11D-07
 ErrMax= 7.11D-07  0.00D+00 EMaxC= 1.00D-01 BMatC= 1.73D-10 BMatP= 4.40D-09
 IDIUse=1 WtCom= 1.00D+00 WtEn= 0.00D+00
 Coeff-Com: -0.151D-02 0.116D+00 0.778D-01 0.206D+00 0.601D+00
 Coeff:     -0.151D-02 0.116D+00 0.778D-01 0.206D+00 0.601D+00
 Gap=     0.124 Goal=   None    Shift=    0.000
 RMSDP=4.95D-08 MaxDP=1.71D-06 DE=-4.29D-09 OVMax= 6.79D-06

 Cycle  16  Pass 1  IDiag  1:
 RMSU=  4.66D-08    CP:  1.00D+00  1.01D+00  4.17D-01  8.03D-01  9.57D-01
 E= -1186.83462587142     Delta-E=       -0.000000000172 Rises=F Damp=F
 DIIS: error= 2.36D-07 at cycle   6 NSaved=   6.
 NSaved= 6 IEnMin= 6 EnMin= -1186.83462587142     IErMin= 6 ErrMin= 2.36D-07
 ErrMax= 2.36D-07  0.00D+00 EMaxC= 1.00D-01 BMatC= 3.20D-11 BMatP= 1.73D-10
 IDIUse=1 WtCom= 1.00D+00 WtEn= 0.00D+00
 Coeff-Com: -0.663D-04-0.117D-02-0.560D-03 0.291D-01 0.307D+00 0.666D+00
 Coeff:     -0.663D-04-0.117D-02-0.560D-03 0.291D-01 0.307D+00 0.666D+00
 Gap=     0.124 Goal=   None    Shift=    0.000
 RMSDP=2.92D-08 MaxDP=1.16D-06 DE=-1.72D-10 OVMax= 4.79D-06

 Cycle  17  Pass 1  IDiag  1:
 RMSU=  2.48D-08    CP:  1.00D+00  1.01D+00  4.16D-01  8.16D-01  1.04D+00
                    CP:  1.03D+00
 E= -1186.83462587147     Delta-E=       -0.000000000053 Rises=F Damp=F
 DIIS: error= 1.41D-07 at cycle   7 NSaved=   7.
 NSaved= 7 IEnMin= 7 EnMin= -1186.83462587147     IErMin= 7 ErrMin= 1.41D-07
 ErrMax= 1.41D-07  0.00D+00 EMaxC= 1.00D-01 BMatC= 1.01D-11 BMatP= 3.20D-11
 IDIUse=1 WtCom= 1.00D+00 WtEn= 0.00D+00
 Coeff-Com:  0.243D-03-0.223D-01-0.149D-01-0.223D-01 0.645D-01 0.423D+00
 Coeff-Com:  0.571D+00
 Coeff:      0.243D-03-0.223D-01-0.149D-01-0.223D-01 0.645D-01 0.423D+00
 Coeff:      0.571D+00
 Gap=     0.124 Goal=   None    Shift=    0.000
 RMSDP=1.49D-08 MaxDP=5.29D-07 DE=-5.28D-11 OVMax= 3.15D-06

 Cycle  18  Pass 1  IDiag  1:
 RMSU=  1.13D-08    CP:  1.00D+00  1.01D+00  4.17D-01  8.28D-01  1.06D+00
                    CP:  1.10D+00  7.93D-01
 E= -1186.83462587147     Delta-E=       -0.000000000001 Rises=F Damp=F
 DIIS: error= 4.04D-08 at cycle   8 NSaved=   8.
 NSaved= 8 IEnMin= 8 EnMin= -1186.83462587147     IErMin= 8 ErrMin= 4.04D-08
 ErrMax= 4.04D-08  0.00D+00 EMaxC= 1.00D-01 BMatC= 1.14D-12 BMatP= 1.01D-11
 IDIUse=1 WtCom= 1.00D+00 WtEn= 0.00D+00
 Coeff-Com:  0.156D-03-0.135D-01-0.907D-02-0.173D-01 0.516D-03 0.169D+00
 Coeff-Com:  0.337D+00 0.534D+00
 Coeff:      0.156D-03-0.135D-01-0.907D-02-0.173D-01 0.516D-03 0.169D+00
 Coeff:      0.337D+00 0.534D+00
 Gap=     0.124 Goal=   None    Shift=    0.000
 RMSDP=4.72D-09 MaxDP=2.82D-07 DE=-9.09D-13 OVMax= 6.35D-07

 SCF Done:  E(RPBE1PBE) =  -1186.83462587     A.U. after   18 cycles
            NFock= 18  Conv=0.47D-08     -V/T= 2.0096
 KE= 1.175540486748D+03 PE=-7.118944116119D+03 EE= 2.571343762036D+03
 Leave Link  502 at Fri Jan 24 16:53:41 2025, MaxMem=  3221225472 cpu:            1061.8 elap:              44.4
 (Enter /software/gaussian/G16-C.01/avx2/g16/l601.exe)
 Copying SCF densities to generalized density rwf, IOpCl= 0 IROHF=0.

 **********************************************************************

            Population analysis using the SCF Density.

 **********************************************************************

 Orbital symmetries:
       Occupied  (A) (A) (A) (A) (A) (A) (A) (A) (A) (A) (A) (A)
                 (A) (A) (A) (A) (A) (A) (A) (A) (A) (A) (A) (A)
                 (A) (A) (A) (A) (A) (A) (A) (A) (A) (A) (A) (A)
                 (A) (A) (A) (A) (A) (A) (A) (A) (A) (A) (A) (A)
                 (A) (A) (A) (A) (A) (A) (A) (A) (A) (A) (A) (A)
                 (A) (A) (A) (A) (A) (A) (A) (A) (A) (A) (A) (A)
                 (A) (A) (A) (A) (A) (A) (A) (A) (A) (A) (A) (A)
                 (A) (A) (A) (A) (A)
       Virtual   (A) (A) (A) (A) (A) (A) (A) (A) (A) (A) (A) (A)
                 (A) (A) (A) (A) (A) (A) (A) (A) (A) (A) (A) (A)
                 (A) (A) (A) (A) (A) (A) (A) (A) (A) (A) (A) (A)
                 (A) (A) (A) (A) (A) (A) (A) (A) (A) (A) (A) (A)
                 (A) (A) (A) (A) (A) (A) (A) (A) (A) (A) (A) (A)
                 (A) (A) (A) (A) (A) (A) (A) (A) (A) (A) (A) (A)
                 (A) (A) (A) (A) (A) (A) (A) (A) (A) (A) (A) (A)
                 (A) (A) (A) (A) (A) (A) (A) (A) (A) (A) (A) (A)
                 (A) (A) (A) (A) (A) (A) (A) (A) (A) (A) (A) (A)
                 (A) (A) (A) (A) (A) (A) (A) (A) (A) (A) (A) (A)
                 (A) (A) (A) (A) (A) (A) (A) (A) (A) (A) (A) (A)
                 (A) (A) (A) (A) (A) (A) (A) (A) (A) (A) (A) (A)
                 (A) (A) (A) (A) (A) (A) (A) (A) (A) (A) (A) (A)
                 (A) (A) (A) (A) (A) (A) (A) (A) (A) (A) (A) (A)
                 (A) (A) (A) (A) (A) (A) (A) (A) (A) (A) (A) (A)
                 (A) (A) (A) (A) (A) (A) (A) (A) (A) (A) (A) (A)
                 (A) (A) (A) (A) (A) (A) (A) (A) (A) (A) (A) (A)
                 (A) (A) (A) (A) (A) (A) (A) (A) (A) (A) (A) (A)
                 (A) (A) (A) (A) (A) (A) (A) (A) (A) (A) (A) (A)
                 (A) (A) (A) (A) (A) (A) (A) (A) (A) (A) (A) (A)
                 (A) (A) (A) (A) (A) (A) (A) (A) (A) (A) (A) (A)
                 (A) (A) (A) (A) (A) (A) (A) (A) (A) (A) (A) (A)
                 (A) (A) (A) (A) (A) (A) (A) (A) (A) (A) (A) (A)
                 (A) (A) (A) (A) (A) (A) (A) (A) (A) (A) (A) (A)
                 (A) (A) (A) (A) (A) (A) (A) (A) (A) (A) (A) (A)
                 (A) (A) (A) (A) (A) (A) (A) (A) (A) (A) (A) (A)
                 (A) (A) (A) (A) (A) (A) (A) (A) (A) (A) (A) (A)
                 (A) (A) (A) (A) (A) (A) (A) (A) (A) (A) (A) (A)
                 (A) (A) (A) (A) (A) (A) (A) (A) (A) (A) (A) (A)
                 (A) (A) (A)
 The electronic state is 1-A.
 Alpha  occ. eigenvalues --  -24.92600 -24.90010 -24.89608 -19.51161 -14.67175
 Alpha  occ. eigenvalues --  -10.55626 -10.48021 -10.46062 -10.45185 -10.44747
 Alpha  occ. eigenvalues --  -10.43650 -10.42360 -10.37576 -10.37293 -10.36818
 Alpha  occ. eigenvalues --  -10.34789 -10.34540 -10.34080 -10.33448 -10.33182
 Alpha  occ. eigenvalues --  -10.32693 -10.32244 -10.31800 -10.31488  -6.94063
 Alpha  occ. eigenvalues --   -1.39655  -1.37560  -1.35064  -1.34443  -1.18564
 Alpha  occ. eigenvalues --   -1.01310  -1.01008  -0.97393  -0.90912  -0.90574
 Alpha  occ. eigenvalues --   -0.89666  -0.89057  -0.88682  -0.87937  -0.83755
 Alpha  occ. eigenvalues --   -0.80680  -0.78936  -0.78570  -0.77444  -0.76342
 Alpha  occ. eigenvalues --   -0.75447  -0.72044  -0.70647  -0.69193  -0.68256
 Alpha  occ. eigenvalues --   -0.67951  -0.67664  -0.66536  -0.65208  -0.63935
 Alpha  occ. eigenvalues --   -0.62968  -0.62091  -0.60722  -0.60200  -0.59946
 Alpha  occ. eigenvalues --   -0.59129  -0.58896  -0.58762  -0.58463  -0.57671
 Alpha  occ. eigenvalues --   -0.56993  -0.56631  -0.54483  -0.54309  -0.53571
 Alpha  occ. eigenvalues --   -0.53406  -0.52650  -0.51137  -0.51066  -0.50982
 Alpha  occ. eigenvalues --   -0.50372  -0.49397  -0.48694  -0.48337  -0.47434
 Alpha  occ. eigenvalues --   -0.46178  -0.44851  -0.44073  -0.43834  -0.42565
 Alpha  occ. eigenvalues --   -0.39911  -0.37260  -0.34673  -0.34155
 Alpha virt. eigenvalues --   -0.21747  -0.20513  -0.13933  -0.13155  -0.11600
 Alpha virt. eigenvalues --   -0.11097  -0.09482  -0.05988  -0.05491  -0.04435
 Alpha virt. eigenvalues --   -0.03750  -0.02843  -0.01488  -0.00532  -0.00294
 Alpha virt. eigenvalues --    0.00266   0.00858   0.01291   0.02165   0.02372
 Alpha virt. eigenvalues --    0.02678   0.03045   0.03962   0.04621   0.04911
 Alpha virt. eigenvalues --    0.05574   0.05816   0.06076   0.06758   0.07514
 Alpha virt. eigenvalues --    0.09151   0.09540   0.10187   0.11051   0.11495
 Alpha virt. eigenvalues --    0.12433   0.14964   0.15516   0.16279   0.16905
 Alpha virt. eigenvalues --    0.17618   0.17959   0.18796   0.19230   0.21068
 Alpha virt. eigenvalues --    0.21668   0.22386   0.23739   0.24186   0.24561
 Alpha virt. eigenvalues --    0.26162   0.26425   0.27214   0.28218   0.28658
 Alpha virt. eigenvalues --    0.29412   0.30478   0.30797   0.31477   0.31969
 Alpha virt. eigenvalues --    0.32669   0.33312   0.34124   0.34500   0.35468
 Alpha virt. eigenvalues --    0.35917   0.36723   0.37387   0.37913   0.38108
 Alpha virt. eigenvalues --    0.38602   0.39288   0.39587   0.40141   0.40552
 Alpha virt. eigenvalues --    0.41199   0.42191   0.43203   0.44232   0.44566
 Alpha virt. eigenvalues --    0.45584   0.46523   0.46868   0.47538   0.48345
 Alpha virt. eigenvalues --    0.48733   0.49206   0.49823   0.50760   0.51125
 Alpha virt. eigenvalues --    0.51809   0.52097   0.52275   0.53879   0.54428
 Alpha virt. eigenvalues --    0.55003   0.56123   0.56308   0.56762   0.57199
 Alpha virt. eigenvalues --    0.57401   0.57541   0.58127   0.58504   0.59378
 Alpha virt. eigenvalues --    0.59776   0.60483   0.60802   0.60906   0.61528
 Alpha virt. eigenvalues --    0.61745   0.62126   0.62624   0.63452   0.64242
 Alpha virt. eigenvalues --    0.64436   0.65002   0.65775   0.66305   0.66536
 Alpha virt. eigenvalues --    0.66845   0.67375   0.68178   0.68339   0.68977
 Alpha virt. eigenvalues --    0.69688   0.71047   0.72390   0.73246   0.74125
 Alpha virt. eigenvalues --    0.74897   0.76509   0.78332   0.79819   0.80922
 Alpha virt. eigenvalues --    0.81277   0.82581   0.83303   0.84935   0.86978
 Alpha virt. eigenvalues --    0.88512   0.89376   0.90286   0.91541   0.94676
 Alpha virt. eigenvalues --    0.94941   0.95284   0.96915   1.00021   1.00881
 Alpha virt. eigenvalues --    1.02733   1.03927   1.04636   1.06555   1.08317
 Alpha virt. eigenvalues --    1.08376   1.09835   1.10583   1.11494   1.11956
 Alpha virt. eigenvalues --    1.12902   1.13522   1.13940   1.15635   1.15890
 Alpha virt. eigenvalues --    1.16035   1.16808   1.17822   1.19418   1.20753
 Alpha virt. eigenvalues --    1.21821   1.21907   1.25254   1.26228   1.27238
 Alpha virt. eigenvalues --    1.28908   1.31212   1.33598   1.34949   1.35479
 Alpha virt. eigenvalues --    1.36036   1.36866   1.38247   1.38811   1.39323
 Alpha virt. eigenvalues --    1.40554   1.41060   1.41507   1.42774   1.43860
 Alpha virt. eigenvalues --    1.44145   1.45145   1.46015   1.46748   1.47326
 Alpha virt. eigenvalues --    1.47742   1.48414   1.50165   1.51013   1.52451
 Alpha virt. eigenvalues --    1.53688   1.54771   1.55817   1.56301   1.56865
 Alpha virt. eigenvalues --    1.58908   1.60270   1.60569   1.61191   1.61739
 Alpha virt. eigenvalues --    1.62789   1.63057   1.63417   1.64059   1.64935
 Alpha virt. eigenvalues --    1.65962   1.67123   1.67415   1.69225   1.69629
 Alpha virt. eigenvalues --    1.70206   1.70719   1.71469   1.71839   1.71962
 Alpha virt. eigenvalues --    1.72807   1.73366   1.73721   1.74090   1.74667
 Alpha virt. eigenvalues --    1.75238   1.76472   1.77143   1.78680   1.79272
 Alpha virt. eigenvalues --    1.79599   1.79818   1.82077   1.83612   1.83793
 Alpha virt. eigenvalues --    1.84789   1.89980   1.90388   1.90744   1.91246
 Alpha virt. eigenvalues --    1.91964   1.92334   1.93397   1.95285   1.95724
 Alpha virt. eigenvalues --    1.96275   1.97844   1.98199   1.98934   1.99232
 Alpha virt. eigenvalues --    1.99961   2.01864   2.02552   2.03343   2.05817
 Alpha virt. eigenvalues --    2.07826   2.08083   2.10136   2.10755   2.11427
 Alpha virt. eigenvalues --    2.13116   2.13563   2.14988   2.15422   2.15768
 Alpha virt. eigenvalues --    2.17379   2.17893   2.19480   2.19935   2.21573
 Alpha virt. eigenvalues --    2.21830   2.22706   2.25013   2.25735   2.26462
 Alpha virt. eigenvalues --    2.28074   2.29084   2.31482   2.32566   2.33611
 Alpha virt. eigenvalues --    2.35374   2.36166   2.36954   2.39475   2.40704
 Alpha virt. eigenvalues --    2.42460   2.43165   2.44530   2.46031   2.46991
 Alpha virt. eigenvalues --    2.47667   2.49004   2.50245   2.50768   2.53347
 Alpha virt. eigenvalues --    2.54940   2.55802   2.56992   2.58562   2.59026
 Alpha virt. eigenvalues --    2.62493   2.65761   2.66560   2.67290   2.71762
 Alpha virt. eigenvalues --    2.73978   2.75000   2.75515   2.76346   2.78238
 Alpha virt. eigenvalues --    2.79301   2.80707   2.81835   2.82468   2.83192
 Alpha virt. eigenvalues --    2.83934   2.85198   2.86682   2.88388   2.89023
 Alpha virt. eigenvalues --    2.91829   2.93167   2.95568   2.98021   2.98484
 Alpha virt. eigenvalues --    2.98971   2.99612   3.00905   3.01658   3.02152
 Alpha virt. eigenvalues --    3.03684   3.14641   3.16285   3.20454   3.22755
 Alpha virt. eigenvalues --    3.23990   3.25609   3.28167   3.32140   3.38599
 Alpha virt. eigenvalues --    3.43150   3.45759   3.53091   3.66322   3.73767
 Alpha virt. eigenvalues --    3.84655
          Condensed to atoms (all electrons):
               1          2          3          4          5          6
     1  C    4.755057   0.560934  -0.034265  -0.003160   0.000220   0.000087
     2  C    0.560934   4.959773   0.373506  -0.023287   0.000550  -0.001173
     3  B   -0.034265   0.373506   3.948105   0.447176  -0.051586  -0.002735
     4  C   -0.003160  -0.023287   0.447176   5.339610   0.281442  -0.102671
     5  C    0.000220   0.000550  -0.051586   0.281442   5.170265   0.425185
     6  C    0.000087  -0.001173  -0.002735  -0.102671   0.425185   4.623932
     7  C   -0.000080  -0.000152   0.017077   0.032248   0.362190  -0.088885
     8  C    0.000009   0.000091  -0.002799  -0.121453   0.067564   0.013748
     9  C   -0.000000  -0.000000   0.000064  -0.000362   0.011818  -0.000219
    10  C   -0.000517   0.000139   0.016056   0.039264  -0.114054  -0.001293
    11  C    0.001901  -0.011250  -0.062750   0.264578   0.071287   0.014154
    12  C   -0.002716  -0.002133   0.004100  -0.103680   0.013511  -0.000077
[...]
    10  C   -0.000000   0.000153  -0.000001  -0.000066  -0.000009  -0.000001
    11  C   -0.000000   0.000478  -0.000008  -0.000473   0.000507   0.000014
    12  C    0.000000   0.000403   0.000009  -0.000512   0.000161  -0.000015
    13  C    0.014795   0.146705  -0.013589   0.001664  -0.000858  -0.000171
    14  C   -0.000785   0.015179   0.000338   0.000690  -0.000103  -0.000006
    15  F    0.000000   0.004772  -0.000029  -0.000003  -0.000002  -0.000000
    16  C    0.008478  -0.060591   0.001876   0.000076   0.000013   0.000000
    17  C   -0.054810  -0.064001   0.004970  -0.000071  -0.000019   0.000000
    18  C    0.320833   0.325858  -0.021949  -0.000477  -0.000020   0.000009
    19  F    8.937899  -0.072554  -0.000257  -0.000010  -0.000001  -0.000000
    20  C   -0.072554   5.355477   0.149486  -0.002929   0.000030   0.000104
    21  F   -0.000257   0.149486   9.082688  -0.006904   0.003168  -0.000392
    22  N   -0.000010  -0.002929  -0.006904   6.126290   0.520899  -0.029310
    23  C   -0.000001   0.000030   0.003168   0.520899   4.814771   0.266276
    24  C   -0.000000   0.000104  -0.000392  -0.029310   0.266276   4.937652
    25  O    0.000000  -0.000024  -0.000040  -0.068294   0.392602  -0.027090
    26  H    0.000000  -0.000017   0.000014   0.000805   0.001640  -0.000307
    27  H   -0.000002  -0.000721  -0.000011   0.000028   0.000001   0.000000
    28  H    0.000000   0.000152  -0.000010  -0.000009  -0.000004  -0.000000
    29  H    0.000001  -0.002423  -0.000259   0.000133  -0.000070  -0.000010
    30  H   -0.000000  -0.000002   0.000000  -0.000000   0.000000  -0.000000
    31  H   -0.000000  -0.000000   0.000000   0.000000   0.000000   0.000000
    32  H    0.000000   0.000000   0.000000  -0.000000  -0.000000  -0.000000
    33  H   -0.000000  -0.000000   0.000000   0.000000   0.000000   0.000000
    34  H   -0.000000  -0.000000   0.000000  -0.000000   0.000000  -0.000000
    35  H   -0.000000  -0.000017  -0.000000  -0.000011  -0.000022  -0.000001
    36  H   -0.000000   0.000859   0.000001   0.000156   0.000675  -0.000017
    37  H   -0.000000  -0.000012   0.000001   0.000025   0.000004   0.000001
    38  H   -0.000030  -0.004020   0.000019  -0.000000   0.000000   0.000000
    39  H    0.001120   0.017698  -0.000123  -0.000000  -0.000000  -0.000000
    40  H    0.000000  -0.000004   0.000000  -0.000652  -0.023163   0.396119
    41  H    0.000000   0.000011  -0.000029   0.001285  -0.050125   0.421026
    42  H    0.000000   0.000005  -0.000000  -0.000992  -0.025885   0.399902
    43  H   -0.000002  -0.007670   0.020980   0.364592  -0.035867  -0.003806
              25         26         27         28         29         30
     1  C    0.330683   0.399113   0.000294   0.000142  -0.003494   0.000008
     2  C   -0.078461  -0.010746  -0.000952   0.000397   0.000932  -0.000014
     3  B    0.002179  -0.003486   0.010882  -0.005471   0.007731  -0.000475
     4  C    0.000036  -0.011861  -0.005194   0.011212  -0.020044   0.022416
     5  C   -0.000062   0.003460  -0.029412  -0.049626  -0.045260  -0.060640
     6  C    0.000025   0.000377   0.400123   0.406213   0.420478  -0.011028
     7  C    0.000006  -0.000057  -0.004835  -0.002604  -0.003212   0.425765
     8  C   -0.000009   0.001172  -0.000718   0.001577   0.000515  -0.057316
     9  C   -0.000000  -0.000033  -0.000019  -0.000026   0.000034  -0.006863
    10  C   -0.000034   0.001944   0.000666   0.000139  -0.000931   0.016089
    11  C   -0.000190   0.005298  -0.001087  -0.000290   0.003614  -0.003472
    12  C    0.000109  -0.000338  -0.000018   0.000031   0.000104   0.000084
    13  C   -0.000243   0.000156  -0.001921   0.000511   0.000988  -0.000009
    14  C    0.000004   0.000022   0.000129   0.000000   0.001031   0.000021
    15  F    0.000000  -0.000000   0.000100  -0.000016  -0.000032  -0.000007
    16  C   -0.000000   0.000000   0.000431  -0.000014   0.000105   0.000002
    17  C   -0.000000   0.000000   0.000002   0.000003   0.000001  -0.000000
    18  C   -0.000000  -0.000002   0.000053   0.000003   0.000001   0.000000
    19  F    0.000000   0.000000  -0.000002   0.000000   0.000001  -0.000000
    20  C   -0.000024  -0.000017  -0.000721   0.000152  -0.002423  -0.000002
    21  F   -0.000040   0.000014  -0.000011  -0.000010  -0.000259   0.000000
    22  N   -0.068294   0.000805   0.000028  -0.000009   0.000133  -0.000000
    23  C    0.392602   0.001640   0.000001  -0.000004  -0.000070   0.000000
    24  C   -0.027090  -0.000307   0.000000  -0.000000  -0.000010  -0.000000
    25  O    7.577541  -0.019005  -0.000000   0.000000   0.000013   0.000000
    26  H   -0.019005   0.397902  -0.000016   0.000012   0.000199  -0.000010
    27  H   -0.000000  -0.000016   0.534205  -0.017510  -0.036701   0.000324
    28  H    0.000000   0.000012  -0.017510   0.508109  -0.014921   0.004733
    29  H    0.000013   0.000199  -0.036701  -0.014921   0.560651  -0.000116
    30  H    0.000000  -0.000010   0.000324   0.004733  -0.000116   0.550617
    31  H    0.000000  -0.000007   0.000006  -0.000006  -0.000004   0.002173
    32  H   -0.000000   0.000003  -0.000001   0.000005   0.000001   0.000189
    33  H    0.000000  -0.000005  -0.000001   0.000001  -0.000000   0.000051
    34  H   -0.000000   0.000024   0.000001  -0.000002  -0.000006  -0.000218
    35  H   -0.000003   0.000070  -0.000000  -0.000000   0.000000  -0.000003
    36  H    0.000081  -0.000272   0.000026   0.000000  -0.000048  -0.000004
    37  H   -0.000002   0.000013  -0.000026  -0.000000   0.000013  -0.000000
    38  H    0.000000  -0.000000  -0.000002  -0.000000   0.000002   0.000000
    39  H   -0.000000   0.000000  -0.000001  -0.000000  -0.000000   0.000000
    40  H   -0.000987  -0.000021   0.000000  -0.000000  -0.000000   0.000000
    41  H    0.002270   0.000018  -0.000000  -0.000000   0.000001  -0.000000
    42  H   -0.001077  -0.000021  -0.000000   0.000000  -0.000000  -0.000000
    43  H    0.001715  -0.000011   0.000001   0.000002   0.000008  -0.000000
              31         32         33         34         35         36
     1  C    0.000002  -0.000002   0.000004  -0.000021   0.000167  -0.006506
     2  C    0.000000  -0.000001   0.000001  -0.000029   0.000054   0.004517
     3  B    0.000025  -0.000021  -0.000033  -0.001325  -0.004666   0.006149
     4  C    0.000545  -0.000238   0.000357   0.023079   0.012689  -0.028657
     5  C    0.002345  -0.000401  -0.000902  -0.003872   0.000014   0.002187
     6  C   -0.000070  -0.000008   0.000018   0.000088   0.000027   0.000049
     7  C   -0.002001  -0.005476   0.006677   0.017618   0.000080  -0.000438
     8  C   -0.050504  -0.019392  -0.056110  -0.060824   0.001132  -0.000311
     9  C    0.416124   0.396476   0.420256  -0.007880  -0.000005   0.000022
    10  C    0.005106  -0.007020  -0.002057   0.433836  -0.004215   0.005044
    11  C   -0.001136  -0.000809   0.003286  -0.067114  -0.050749  -0.048004
    12  C    0.000019   0.000001  -0.000081  -0.010059   0.408063   0.425972
    13  C    0.000000   0.000001  -0.000001   0.000029   0.000128   0.001129
    14  C    0.000000  -0.000001   0.000000   0.000003   0.000043  -0.002254
    15  F    0.000000  -0.000001  -0.000000   0.000017   0.000158  -0.000218
    16  C    0.000000  -0.000000   0.000000  -0.000001  -0.000008  -0.000062
    17  C   -0.000000   0.000000  -0.000000   0.000000   0.000000  -0.000002
    18  C    0.000000  -0.000000  -0.000000  -0.000000  -0.000001   0.000057
    19  F   -0.000000   0.000000  -0.000000  -0.000000  -0.000000  -0.000000
    20  C   -0.000000   0.000000  -0.000000  -0.000000  -0.000017   0.000859
    21  F    0.000000   0.000000   0.000000   0.000000  -0.000000   0.000001
    22  N    0.000000  -0.000000   0.000000  -0.000000  -0.000011   0.000156
    23  C    0.000000  -0.000000   0.000000   0.000000  -0.000022   0.000675
    24  C    0.000000  -0.000000   0.000000  -0.000000  -0.000001  -0.000017
    25  O    0.000000  -0.000000   0.000000  -0.000000  -0.000003   0.000081
    26  H   -0.000007   0.000003  -0.000005   0.000024   0.000070  -0.000272
    27  H    0.000006  -0.000001  -0.000001   0.000001  -0.000000   0.000026
    28  H   -0.000006   0.000005   0.000001  -0.000002  -0.000000   0.000000
    29  H   -0.000004   0.000001  -0.000000  -0.000006   0.000000  -0.000048
    30  H    0.002173   0.000189   0.000051  -0.000218  -0.000003  -0.000004
    31  H    0.531414  -0.023763  -0.022197   0.000042   0.000000  -0.000000
    32  H   -0.023763   0.528035  -0.021344   0.000161   0.000007  -0.000000
    33  H   -0.022197  -0.021344   0.528433   0.002866  -0.000018   0.000000
    34  H    0.000042   0.000161   0.002866   0.552482   0.003972   0.000124
    35  H    0.000000   0.000007  -0.000018   0.003972   0.512517  -0.018541
    36  H   -0.000000  -0.000000   0.000000   0.000124  -0.018541   0.574705
    37  H   -0.000001  -0.000001   0.000009   0.000207  -0.016367  -0.034693
    38  H   -0.000000   0.000000  -0.000000  -0.000000  -0.000000   0.000003
    39  H   -0.000000   0.000000   0.000000   0.000000   0.000000  -0.000000
    40  H   -0.000000   0.000000  -0.000000  -0.000000   0.000000  -0.000005
    41  H   -0.000000   0.000000  -0.000000  -0.000000   0.000000   0.000002
    42  H   -0.000000   0.000000  -0.000000   0.000000  -0.000000   0.000001
    43  H    0.000000  -0.000000   0.000000   0.000000  -0.000002  -0.000094
              37         38         39         40         41         42
     1  C    0.000695  -0.000000   0.000000  -0.000387   0.001182  -0.000505
     2  C   -0.000768   0.000029  -0.000003   0.000169  -0.000463   0.000327
     3  B    0.012020  -0.000373   0.000140   0.000151  -0.000510   0.000085
     4  C   -0.007966   0.000052  -0.000005  -0.000006   0.000003  -0.000001
     5  C   -0.001549  -0.000003   0.000001  -0.000000  -0.000000  -0.000000
     6  C    0.000016  -0.000005  -0.000003  -0.000000  -0.000000   0.000000
     7  C    0.000557  -0.000006   0.000000  -0.000000  -0.000000   0.000000
     8  C    0.000084   0.000000  -0.000000   0.000000   0.000000  -0.000000
     9  C   -0.000032   0.000000  -0.000000   0.000000   0.000000  -0.000000
    10  C   -0.007881  -0.000002   0.000000  -0.000000  -0.000000   0.000000
    11  C   -0.023630   0.000063   0.000000   0.000001   0.000000  -0.000001
    12  C    0.396517  -0.000039   0.000000   0.000001   0.000000   0.000000
    13  C   -0.003245   0.018649  -0.004706   0.000004  -0.000005  -0.000004
    14  C   -0.000965  -0.041722   0.010302   0.000000  -0.000001  -0.000000
    15  F    0.004753   0.003945  -0.000100   0.000000   0.000000   0.000000
    16  C    0.000100   0.409269  -0.043082  -0.000000  -0.000000   0.000000
    17  C   -0.000009  -0.038875   0.414632   0.000000   0.000000  -0.000000
    18  C    0.000017   0.007979  -0.044877  -0.000000   0.000000   0.000000
    19  F   -0.000000  -0.000030   0.001120   0.000000   0.000000   0.000000
    20  C   -0.000012  -0.004020   0.017698  -0.000004   0.000011   0.000005
    21  F    0.000001   0.000019  -0.000123   0.000000  -0.000029  -0.000000
    22  N    0.000025  -0.000000  -0.000000  -0.000652   0.001285  -0.000992
    23  C    0.000004   0.000000  -0.000000  -0.023163  -0.050125  -0.025885
    24  C    0.000001   0.000000  -0.000000   0.396119   0.421026   0.399902
    25  O   -0.000002   0.000000  -0.000000  -0.000987   0.002270  -0.001077
    26  H    0.000013  -0.000000   0.000000  -0.000021   0.000018  -0.000021
    27  H   -0.000026  -0.000002  -0.000001   0.000000  -0.000000  -0.000000
    28  H   -0.000000  -0.000000  -0.000000  -0.000000  -0.000000   0.000000
    29  H    0.000013   0.000002  -0.000000  -0.000000   0.000001  -0.000000
    30  H   -0.000000   0.000000   0.000000   0.000000  -0.000000  -0.000000
    31  H   -0.000001  -0.000000  -0.000000  -0.000000  -0.000000  -0.000000
    32  H   -0.000001   0.000000   0.000000   0.000000   0.000000   0.000000
    33  H    0.000009  -0.000000   0.000000  -0.000000  -0.000000  -0.000000
    34  H    0.000207  -0.000000   0.000000  -0.000000  -0.000000   0.000000
    35  H   -0.016367  -0.000000   0.000000   0.000000   0.000000  -0.000000
    36  H   -0.034693   0.000003  -0.000000  -0.000005   0.000002   0.000001
    37  H    0.521579   0.000008   0.000000  -0.000000  -0.000000  -0.000000
    38  H    0.000008   0.485144  -0.006410  -0.000000  -0.000000   0.000000
    39  H    0.000000  -0.006410   0.482970   0.000000  -0.000000  -0.000000
    40  H   -0.000000  -0.000000   0.000000   0.464248  -0.014498  -0.017395
    41  H   -0.000000  -0.000000  -0.000000  -0.014498   0.481054  -0.014421
    42  H   -0.000000   0.000000  -0.000000  -0.017395  -0.014421   0.463257
    43  H    0.000000  -0.000001   0.000003   0.000035   0.001272  -0.000024
              43
     1  C    0.015537
     2  C   -0.034447
     3  B   -0.008920
     4  C   -0.000179
     5  C    0.000015
     6  C    0.000065
     7  C    0.000002
     8  C   -0.000000
     9  C   -0.000000
    10  C    0.000002
    11  C   -0.000010
    12  C   -0.000089
    13  C    0.005078
    14  C    0.000833
    15  F    0.000003
    16  C   -0.000079
    17  C    0.000220
    18  C   -0.002107
    19  F   -0.000002
    20  C   -0.007670
    21  F    0.020980
    22  N    0.364592
    23  C   -0.035867
    24  C   -0.003806
    25  O    0.001715
    26  H   -0.000011
    27  H    0.000001
    28  H    0.000002
    29  H    0.000008
    30  H   -0.000000
    31  H    0.000000
    32  H   -0.000000
    33  H    0.000000
    34  H    0.000000
    35  H   -0.000002
    36  H   -0.000094
    37  H    0.000000
    38  H   -0.000001
    39  H    0.000003
    40  H    0.000035
    41  H    0.001272
    42  H   -0.000024
    43  H    0.396843
 Mulliken charges:
               1
     1  C    0.075155
     2  C   -0.005049
     3  B   -0.033195
     4  C   -0.195597
     5  C    0.242162
     6  C   -0.404614
     7  C   -0.341572
     8  C    0.237329
     9  C   -0.410866
    10  C   -0.322273
    11  C    0.160901
    12  C   -0.395915
    13  C   -0.160443
    14  C    0.338845
    15  F   -0.152879
    16  C   -0.214519
    17  C   -0.133539
    18  C    0.185441
    19  F   -0.154063
    20  C    0.258430
    21  F   -0.224171
    22  N   -0.135849
    23  C    0.292484
    24  C   -0.363682
    25  O   -0.111744
    26  H    0.233971
    27  H    0.151877
    28  H    0.157268
    29  H    0.130981
    30  H    0.117704
    31  H    0.141887
    32  H    0.153602
    33  H    0.140789
    34  H    0.116804
    35  H    0.155508
    36  H    0.118366
    37  H    0.160529
    38  H    0.166326
    39  H    0.172444
    40  H    0.196389
    41  H    0.171928
    42  H    0.196748
    43  H    0.286102
 Sum of Mulliken charges =   1.00000
 Mulliken charges with hydrogens summed into heavy atoms:
               1
     1  C    0.309127
     2  C   -0.005049
     3  B   -0.033195
     4  C   -0.195597
     5  C    0.242162
     6  C    0.035512
     7  C   -0.223868
     8  C    0.237329
     9  C    0.025413
    10  C   -0.205468
    11  C    0.160901
    12  C    0.038488
    13  C   -0.160443
    14  C    0.338845
    15  F   -0.152879
    16  C   -0.048193
    17  C    0.038905
    18  C    0.185441
    19  F   -0.154063
    20  C    0.258430
    21  F   -0.224171
    22  N    0.150253
    23  C    0.292484
    24  C    0.201382
    25  O   -0.111744
 Electronic spatial extent (au):  <R**2>=           8561.8317
 Charge=              1.0000 electrons
 Dipole moment (field-independent basis, Debye):
    X=             -4.1221    Y=              7.7044    Z=              0.9079  Tot=              8.7849
 Quadrupole moment (field-independent basis, Debye-Ang):
   XX=           -106.1033   YY=            -76.9142   ZZ=           -133.1350
   XY=            -11.8829   XZ=             -4.3000   YZ=              0.9448
 Traceless Quadrupole moment (field-independent basis, Debye-Ang):
   XX=             -0.7192   YY=             28.4699   ZZ=            -27.7508
   XY=            -11.8829   XZ=             -4.3000   YZ=              0.9448
 Octapole moment (field-independent basis, Debye-Ang**2):
  XXX=              6.8046  YYY=            143.3816  ZZZ=             -6.2618  XYY=           -160.8910
  XXY=             17.0399  XXZ=              8.4379  XZZ=              2.3191  YZZ=              3.1909
  YYZ=             18.3236  XYZ=              6.6208
 Hexadecapole moment (field-independent basis, Debye-Ang**3):
 XXXX=          -5396.5361 YYYY=          -2669.4245 ZZZZ=          -1009.0909 XXXY=           -115.6678
 XXXZ=            -27.6255 YYYX=           -226.9090 YYYZ=            -35.7753 ZZZX=             31.7367
 ZZZY=              4.9161 XXYY=          -1288.0479 XXZZ=          -1110.9989 YYZZ=           -813.4414
 XXYZ=              9.3912 YYXZ=            -32.7115 ZZXY=            -17.1765
 N-N= 2.192676078482D+03 E-N=-7.143168163846D+03  KE= 1.182541644761D+03
 No NMR shielding tensors so no spin-rotation constants.
 Leave Link  601 at Fri Jan 24 17:40:35 2025, MaxMem=  3221225472 cpu:              13.7 elap:               0.7
 (Enter /software/gaussian/G16-C.01/avx2/g16/l9999.exe)
 Unable to Open any file for archive entry.
 1\1\GINC-NODE33\SP\RPBE1PBE\def2TZVP\C19H18B1F3N1O1(1+)\LAPLAZA\24-Jan
 -2025\0\\#p def2tzvp pbe1pbe integral=ultrafinegrid geom=allcheck gues
 s=read em=gd3bj\\with_proton\\1,1\C,0,-0.0276066452,2.3577118995,0.869
 3843534\C,0,-0.9630200865,1.3984591297,0.6209466801\B,0,-0.6375151309,
 -0.0535216742,0.0963047418\C,0,0.8958398758,-0.2339561204,-0.149823255
 \C,0,1.3900508845,-0.0459242153,-1.4560813911\C,0,0.440637256,0.200803
 0108,-2.5966027854\C,0,2.7660421943,-0.101189612,-1.6779411464\C,0,3.6
 703355828,-0.3515395464,-0.6402991117\C,0,5.1430916817,-0.4375444172,-
 0.9084520205\C,0,3.1585872173,-0.5478348091,0.6451619986\C,0,1.7877004
 228,-0.4980071355,0.9066002669\C,0,1.2679956597,-0.8079826218,2.282017
 9132\C,0,-1.6922050826,-1.1697057265,-0.1587515813\C,0,-1.2983397891,-
 2.5263641895,-0.2116565406\F,0,-0.0368421027,-2.8445301303,0.014261481
 4\C,0,-2.1811513829,-3.567847857,-0.4681274958\C,0,-3.5223249301,-3.28
 49938536,-0.6974150651\C,0,-3.9665243816,-1.9685888194,-0.6588919687\F
 ,0,-5.2336639849,-1.6665700899,-0.8755186279\C,0,-3.0597631487,-0.9539
 271156,-0.3890971117\F,0,-3.5503966601,0.2992275956,-0.3845751551\N,0,
 -2.15681062,2.0177172374,1.0088710586\C,0,-1.9265213733,3.2360225698,1
 .4421686686\C,0,-2.8654821286,4.2524051588,1.9345035696\O,0,-0.6332389
 998,3.4667915767,1.3713388738\H,0,1.0527048296,2.3804681083,0.74756764
 13\H,0,-0.1122123186,-0.7164562023,-2.8579886113\H,0,0.9679344646,0.53
 4330663,-3.5005668284\H,0,-0.3115335024,0.9715205982,-2.3542713817\H,0
 ,3.1464623766,0.0619621704,-2.6906939996\H,0,5.4513577691,0.2590104279
 ,-1.7012068785\H,0,5.4163725957,-1.4519820539,-1.2430329934\H,0,5.7331
 191015,-0.2203107996,-0.0072062472\H,0,3.8488645197,-0.7512594013,1.46
 92800102\H,0,2.0243020749,-0.6323796084,3.0596229167\H,0,0.3764297349,
 -0.2123169828,2.5405721663\H,0,0.9701830187,-1.8674350594,2.3439325241
 \H,0,-1.803581802,-4.5908680064,-0.4863060001\H,0,-4.2434251877,-4.077
 1287788,-0.9095490685\H,0,-2.5995982758,4.5377522059,2.9639511387\H,0,
 -3.8942848925,3.8741538187,1.9159515064\H,0,-2.796975336,5.1565144797,
 1.3101809932\H,0,-3.073315668,1.584283696,0.8955187822\\Version=ES64L-
 G16RevC.01\State=1-A\HF=-1188.1689657\RMSD=2.551e-09\Dipole=-1.6424714
 ,2.6739774,1.448329\Quadrupole=-0.6900599,15.3674669,-14.6774069,-7.07
 33543,-7.141445,14.0960589\PG=C01 [X(C19H18B1F3N1O1)]\\@
 The archive entry for this job was punched.


 Age does not diminish the extreme disappointment of
 having a scoop of ice cream fall from the cone.
 -- Jim Fiebig
 Job cpu time:       0 days  2 hours 49 minutes 26.5 seconds.
 Elapsed time:       0 days  0 hours  7 minutes  4.9 seconds.
 File lengths (MBytes):  RWF=    406 Int=      0 D2E=      0 Chk=     56 Scr=      1
 Normal termination of Gaussian 16 at Fri Jan 24 17:40:35 2025.
