 Entering Gaussian System, Link 0=g16
 Input=with_hydride.com
 Output=with_hydride.log
 Initial command:
 /software/gaussian/G16-C.01/avx2/g16/l1.exe "/scratch/laplaza/9953613.slurm/Gau-339082.inp" -scrdir="/scratch/laplaza/9953613.slurm/"
 Entering Link 1 = /software/gaussian/G16-C.01/avx2/g16/l1.exe PID=    339083.
  
 Copyright (c) 1988-2019, Gaussian, Inc.  All Rights Reserved.
  
 This is part of the Gaussian(R) 16 program.  It is based on
 the Gaussian(R) 09 system (copyright 2009, Gaussian, Inc.),
 the Gaussian(R) 03 system (copyright 2003, Gaussian, Inc.),
 the Gaussian(R) 98 system (copyright 1998, Gaussian, Inc.),
 the Gaussian(R) 94 system (copyright 1995, Gaussian, Inc.),
 the Gaussian 92(TM) system (copyright 1992, Gaussian, Inc.),
 the Gaussian 90(TM) system (copyright 1990, Gaussian, Inc.),
 the Gaussian 88(TM) system (copyright 1988, Gaussian, Inc.),
 the Gaussian 86(TM) system (copyright 1986, Carnegie Mellon
 University), and the Gaussian 82(TM) system (copyright 1983,
 Carnegie Mellon University). Gaussian is a federally registered
 trademark of Gaussian, Inc.
  
 This software contains proprietary and confidential information,
 including trade secrets, belonging to Gaussian, Inc.
  
 This software is provided under written license and may be
 used, copied, transmitted, or stored only in accord with that
 written license.
  
 The following legend is applicable only to US Government
 contracts under FAR:
  
                    RESTRICTED RIGHTS LEGEND
  
 Use, reproduction and disclosure by the US Government is
 subject to restrictions as set forth in subparagraphs (a)
 and (c) of the Commercial Computer Software - Restricted
 Rights clause in FAR 52.227-19.
  
 Gaussian, Inc.
 340 Quinnipiac St., Bldg. 40, Wallingford CT 06492
  
  
 ---------------------------------------------------------------
 Warning -- This program may not be used in any manner that
 competes with the business of Gaussian, Inc. or will provide
 assistance to any competitor of Gaussian, Inc.  The licensee
 of this program is prohibited from giving any competitor of
 Gaussian, Inc. access to this program.  By using this program,
 the user acknowledges that Gaussian, Inc. is engaged in the
 business of creating and licensing software in the field of
 computational chemistry and represents and warrants to the
 licensee that it is not a competitor of Gaussian, Inc. and that
 it will not use this program in any manner prohibited above.
 ---------------------------------------------------------------
  

 Cite this work as:
 Gaussian 16, Revision C.01,
 M. J. Frisch, G. W. Trucks, H. B. Schlegel, G. E. Scuseria, 
 M. A. Robb, J. R. Cheeseman, G. Scalmani, V. Barone, 
 G. A. Petersson, H. Nakatsuji, X. Li, M. Caricato, A. V. Marenich, 
 J. Bloino, B. G. Janesko, R. Gomperts, B. Mennucci, H. P. Hratchian, 
 J. V. Ortiz, A. F. Izmaylov, J. L. Sonnenberg, D. Williams-Young, 
 F. Ding, F. Lipparini, F. Egidi, J. Goings, B. Peng, A. Petrone, 
 T. Henderson, D. Ranasinghe, V. G. Zakrzewski, J. Gao, N. Rega, 
 G. Zheng, W. Liang, M. Hada, M. Ehara, K. Toyota, R. Fukuda, 
 J. Hasegawa, M. Ishida, T. Nakajima, Y. Honda, O. Kitao, H. Nakai, 
 T. Vreven, K. Throssell, J. A. Montgomery, Jr., J. E. Peralta, 
 F. Ogliaro, M. J. Bearpark, J. J. Heyd, E. N. Brothers, K. N. Kudin, 
 V. N. Staroverov, T. A. Keith, R. Kobayashi, J. Normand, 
 K. Raghavachari, A. P. Rendell, J. C. Burant, S. S. Iyengar, 
 J. Tomasi, M. Cossi, J. M. Millam, M. Klene, C. Adamo, R. Cammi, 
 J. W. Ochterski, R. L. Martin, K. Morokuma, O. Farkas, 
 J. B. Foresman, and D. J. Fox, Gaussian, Inc., Wallingford CT, 2019.
 
 ******************************************
 Gaussian 16:  ES64L-G16RevC.01  3-Jul-2019
                24-Jan-2025 
 ******************************************
 %nprocshared=24
 Will use up to   24 processors via shared memory.
 %mem=24GB
 %chk=with_hydride.chk
 -------------------------------------------------------------------
 #p opt freq=noraman def2svp pbe1pbe em=gd3bj integral=ultrafinegrid
 -------------------------------------------------------------------
 1/18=20,19=15,26=4,38=1/1,3;
 2/9=110,12=2,17=6,18=5,40=1/2;
 3/5=43,7=101,11=2,25=1,30=1,71=1,74=-13,75=-5,124=41/1,2,3;
 4//1;
 5/5=2,38=5/2;
 6/7=2,8=2,9=2,10=2,28=1/1;
 7//1,2,3,16;
 1/18=20,19=15,26=4/3(2);
 2/9=110/2;
 99//99;
 2/9=110/2;
 3/5=43,7=101,11=2,25=1,30=1,71=1,74=-13,75=-5,124=41/1,2,3;
 4/5=5,16=3,69=1/1;
 5/5=2,38=5/2;
 7//1,2,3,16;
 1/18=20,19=15,26=4/3(-5);
 2/9=110/2;
 6/7=2,8=2,9=2,10=2,19=2,28=1/1;
 99/9=1/99;
 Leave Link    1 at Fri Jan 24 16:52:54 2025, MaxMem=  3221225472 cpu:               1.3 elap:               0.1
 (Enter /software/gaussian/G16-C.01/avx2/g16/l101.exe)
 ------------
 with_hydride
 ------------
 Symbolic Z-matrix:
 Charge = -1 Multiplicity = 1
 C                    -0.23215   2.6475    0.87087 
 C                    -0.9849    1.50327   0.75942 
 B                    -0.54291   0.15469   0.0985 
 C                     0.98993  -0.11907  -0.19011 
 C                     1.44403  -0.3039   -1.53656 
 C                     0.49558  -0.24797  -2.69698 
 C                     2.79563  -0.53102  -1.74516 
 C                     3.72275  -0.54514  -0.7225 
 C                     5.17004  -0.8154   -0.99427 
 C                     3.2792   -0.4009    0.60362 
 C                     1.9089   -0.17454   0.8854 
 C                     1.482    -0.05695   2.31794 
 C                    -1.62608  -0.97892  -0.28943 
 C                    -1.33145  -2.3171   -0.08194 
 F                    -0.1535   -2.71999   0.44443 
 C                    -2.27843  -3.30691  -0.41806 
 C                    -3.49901  -2.95271  -0.96994 
 C                    -3.80418  -1.59397  -1.1752 
 F                    -4.98049  -1.22838  -1.73719 
 C                    -2.87293  -0.59614  -0.82985 
 F                    -3.17103   0.69586  -1.12104 
 N                    -2.21358   1.72729   1.34541 
 C                    -2.11511   3.00487   1.76546 
 C                    -3.23579   3.71073   2.46349 
 O                    -0.95713   3.56598   1.45753 
 H                     0.78106   2.79984   0.50248 
 H                    -0.1244   -1.1736   -2.71775 
 H                     1.05678  -0.16424  -3.66745 
 H                    -0.16041   0.65267  -2.62932 
 H                     3.15975  -0.67144  -2.76899 
 H                     5.46847  -0.4099   -1.98542 
 H                     5.35358  -1.91531  -0.97666 
 H                     5.8205   -0.32567  -0.21881 
 H                     3.98853  -0.46114   1.41496 
 H                     2.26969  -0.4642    3.01548 
 H                     1.32021   1.02026   2.57906 
 H                     0.57062  -0.64973   2.50273 
 H                    -2.04402  -4.34827  -0.24693 
 H                    -4.22543  -3.69409  -1.24007 
 H                    -2.8414    4.57499   3.0379 
 H                    -3.74405   3.00385   3.15303 
 H                    -3.96265   4.0888    1.71327 
 H                    -0.68036   1.20942   0.37895 
 
 ITRead=  0  0  0  0  0  0  0  0  0  0  0  0  0  0  0  0  0  0  0  0
 ITRead=  0  0  0  0  0  0  0  0  0  0  0  0  0  0  0  0  0  0  0  0
 ITRead=  0  0  0
 MicOpt= -1 -1 -1 -1 -1 -1 -1 -1 -1 -1 -1 -1 -1 -1 -1 -1 -1 -1 -1 -1
 MicOpt= -1 -1 -1 -1 -1 -1 -1 -1 -1 -1 -1 -1 -1 -1 -1 -1 -1 -1 -1 -1
 MicOpt= -1 -1 -1
 NAtoms=     43 NQM=       43 NQMF=       0 NMMI=      0 NMMIF=      0
                NMic=       0 NMicF=      0.
                    Isotopes and Nuclear Properties:
 (Nuclear quadrupole moments (NQMom) in fm**2, nuclear magnetic moments (NMagM)
  in nuclear magnetons)

  Atom         1           2           3           4           5           6           7           8           9          10
 IAtWgt=          12          12          11          12          12          12          12          12          12          12
 AtmWgt=  12.0000000  12.0000000  11.0093053  12.0000000  12.0000000  12.0000000  12.0000000  12.0000000  12.0000000  12.0000000
 NucSpn=           0           0           3           0           0           0           0           0           0           0
 AtZEff=  -0.0000000  -0.0000000  -0.0000000  -0.0000000  -0.0000000  -0.0000000  -0.0000000  -0.0000000  -0.0000000  -0.0000000
 NQMom=    0.0000000   0.0000000   4.0590000   0.0000000   0.0000000   0.0000000   0.0000000   0.0000000   0.0000000   0.0000000
 NMagM=    0.0000000   0.0000000   2.6886370   0.0000000   0.0000000   0.0000000   0.0000000   0.0000000   0.0000000   0.0000000
 AtZNuc=   6.0000000   6.0000000   5.0000000   6.0000000   6.0000000   6.0000000   6.0000000   6.0000000   6.0000000   6.0000000

  Atom        11          12          13          14          15          16          17          18          19          20
 IAtWgt=          12          12          12          12          19          12          12          12          19          12
 AtmWgt=  12.0000000  12.0000000  12.0000000  12.0000000  18.9984032  12.0000000  12.0000000  12.0000000  18.9984032  12.0000000
 NucSpn=           0           0           0           0           1           0           0           0           1           0
 AtZEff=  -0.0000000  -0.0000000  -0.0000000  -0.0000000  -0.0000000  -0.0000000  -0.0000000  -0.0000000  -0.0000000  -0.0000000
 NQMom=    0.0000000   0.0000000   0.0000000   0.0000000   0.0000000   0.0000000   0.0000000   0.0000000   0.0000000   0.0000000
 NMagM=    0.0000000   0.0000000   0.0000000   0.0000000   2.6288670   0.0000000   0.0000000   0.0000000   2.6288670   0.0000000
 AtZNuc=   6.0000000   6.0000000   6.0000000   6.0000000   9.0000000   6.0000000   6.0000000   6.0000000   9.0000000   6.0000000

  Atom        21          22          23          24          25          26          27          28          29          30
 IAtWgt=          19          14          12          12          16           1           1           1           1           1
 AtmWgt=  18.9984032  14.0030740  12.0000000  12.0000000  15.9949146   1.0078250   1.0078250   1.0078250   1.0078250   1.0078250
 NucSpn=           1           2           0           0           0           1           1           1           1           1
 AtZEff=  -0.0000000  -0.0000000  -0.0000000  -0.0000000  -0.0000000  -0.0000000  -0.0000000  -0.0000000  -0.0000000  -0.0000000
 NQMom=    0.0000000   2.0440000   0.0000000   0.0000000   0.0000000   0.0000000   0.0000000   0.0000000   0.0000000   0.0000000
 NMagM=    2.6288670   0.4037610   0.0000000   0.0000000   0.0000000   2.7928460   2.7928460   2.7928460   2.7928460   2.7928460
 AtZNuc=   9.0000000   7.0000000   6.0000000   6.0000000   8.0000000   1.0000000   1.0000000   1.0000000   1.0000000   1.0000000

  Atom        31          32          33          34          35          36          37          38          39          40
 IAtWgt=           1           1           1           1           1           1           1           1           1           1
 AtmWgt=   1.0078250   1.0078250   1.0078250   1.0078250   1.0078250   1.0078250   1.0078250   1.0078250   1.0078250   1.0078250
 NucSpn=           1           1           1           1           1           1           1           1           1           1
 AtZEff=  -0.0000000  -0.0000000  -0.0000000  -0.0000000  -0.0000000  -0.0000000  -0.0000000  -0.0000000  -0.0000000  -0.0000000
 NQMom=    0.0000000   0.0000000   0.0000000   0.0000000   0.0000000   0.0000000   0.0000000   0.0000000   0.0000000   0.0000000
 NMagM=    2.7928460   2.7928460   2.7928460   2.7928460   2.7928460   2.7928460   2.7928460   2.7928460   2.7928460   2.7928460
 AtZNuc=   1.0000000   1.0000000   1.0000000   1.0000000   1.0000000   1.0000000   1.0000000   1.0000000   1.0000000   1.0000000

  Atom        41          42          43
 IAtWgt=           1           1           1
 AtmWgt=   1.0078250   1.0078250   1.0078250
 NucSpn=           1           1           1
 AtZEff=  -0.0000000  -0.0000000  -0.0000000
 NQMom=    0.0000000   0.0000000   0.0000000
 NMagM=    2.7928460   2.7928460   2.7928460
 AtZNuc=   1.0000000   1.0000000   1.0000000
 Leave Link  101 at Fri Jan 24 16:52:54 2025, MaxMem=  3221225472 cpu:              16.4 elap:               0.7
 (Enter /software/gaussian/G16-C.01/avx2/g16/l103.exe)

 GradGradGradGradGradGradGradGradGradGradGradGradGradGradGradGradGradGrad
 Berny optimization.
 Initialization pass.
                           ----------------------------
                           !    Initial Parameters    !
                           ! (Angstroms and Degrees)  !
 --------------------------                            --------------------------
 ! Name  Definition              Value          Derivative Info.                !
 --------------------------------------------------------------------------------
 ! R1    R(1,2)                  1.3742         estimate D2E/DX2                !
 ! R2    R(1,25)                 1.309          estimate D2E/DX2                !
 ! R3    R(1,26)                 1.0888         estimate D2E/DX2                !
 ! R4    R(2,3)                  1.5655         estimate D2E/DX2                !
 ! R5    R(2,22)                 1.3796         estimate D2E/DX2                !
 ! R6    R(2,43)                 0.5691         estimate D2E/DX2                !
 ! R7    R(3,4)                  1.5836         estimate D2E/DX2                !
 ! R8    R(3,13)                 1.6152         estimate D2E/DX2                !
 ! R9    R(3,43)                 1.1            estimate D2E/DX2                !
 ! R10   R(4,5)                  1.4329         estimate D2E/DX2                !
 ! R11   R(4,11)                 1.4157         estimate D2E/DX2                !
 ! R12   R(5,6)                  1.4998         estimate D2E/DX2                !
 ! R13   R(5,7)                  1.3863         estimate D2E/DX2                !
 ! R14   R(6,27)                 1.1143         estimate D2E/DX2                !
 ! R15   R(6,28)                 1.1242         estimate D2E/DX2                !
 ! R16   R(6,29)                 1.1163         estimate D2E/DX2                !
 ! R17   R(7,8)                  1.3804         estimate D2E/DX2                !
 ! R18   R(7,30)                 1.0957         estimate D2E/DX2                !
 ! R19   R(8,9)                  1.4972         estimate D2E/DX2                !
 ! R20   R(8,10)                 1.4058         estimate D2E/DX2                !
 ! R21   R(9,31)                 1.1117         estimate D2E/DX2                !
 ! R22   R(9,32)                 1.1153         estimate D2E/DX2                !
 ! R23   R(9,33)                 1.1244         estimate D2E/DX2                !
 ! R24   R(10,11)                1.4172         estimate D2E/DX2                !
 ! R25   R(10,34)                1.0794         estimate D2E/DX2                !
 ! R26   R(11,12)                1.4994         estimate D2E/DX2                !
 ! R27   R(12,35)                1.1282         estimate D2E/DX2                !
 ! R28   R(12,36)                1.1202         estimate D2E/DX2                !
 ! R29   R(12,37)                1.1028         estimate D2E/DX2                !
 ! R30   R(13,14)                1.3858         estimate D2E/DX2                !
 ! R31   R(13,20)                1.4118         estimate D2E/DX2                !
 ! R32   R(14,15)                1.3516         estimate D2E/DX2                !
 ! R33   R(14,16)                1.4105         estimate D2E/DX2                !
 ! R34   R(16,17)                1.3856         estimate D2E/DX2                !
 ! R35   R(16,38)                1.081          estimate D2E/DX2                !
 ! R36   R(17,18)                1.4076         estimate D2E/DX2                !
 ! R37   R(17,39)                1.0725         estimate D2E/DX2                !
 ! R38   R(18,19)                1.354          estimate D2E/DX2                !
 ! R39   R(18,20)                1.4079         estimate D2E/DX2                !
 ! R40   R(20,21)                1.3575         estimate D2E/DX2                !
 ! R41   R(22,23)                1.3485         estimate D2E/DX2                !
 ! R42   R(23,24)                1.4971         estimate D2E/DX2                !
 ! R43   R(23,25)                1.3231         estimate D2E/DX2                !
 ! R44   R(24,40)                1.1102         estimate D2E/DX2                !
 ! R45   R(24,41)                1.1106         estimate D2E/DX2                !
 ! R46   R(24,42)                1.1109         estimate D2E/DX2                !
 ! A1    A(2,1,25)             108.4956         estimate D2E/DX2                !
 ! A2    A(2,1,26)             126.7859         estimate D2E/DX2                !
 ! A3    A(25,1,26)            124.6703         estimate D2E/DX2                !
 ! A4    A(1,2,3)              126.6459         estimate D2E/DX2                !
 ! A5    A(1,2,22)             108.5551         estimate D2E/DX2                !
 ! A6    A(1,2,43)             101.0131         estimate D2E/DX2                !
 ! A7    A(3,2,22)             124.7959         estimate D2E/DX2                !
 ! A8    A(22,2,43)            147.6127         estimate D2E/DX2                !
 ! A9    A(2,3,4)              119.943          estimate D2E/DX2                !
 ! A10   A(2,3,13)             121.1078         estimate D2E/DX2                !
 ! A11   A(4,3,13)             118.9478         estimate D2E/DX2                !
 ! A12   A(4,3,43)             109.4616         estimate D2E/DX2                !
 ! A13   A(13,3,43)            130.5715         estimate D2E/DX2                !
 ! A14   A(3,4,5)              120.0192         estimate D2E/DX2                !
 ! A15   A(3,4,11)             119.7767         estimate D2E/DX2                !
 ! A16   A(5,4,11)             120.2035         estimate D2E/DX2                !
 ! A17   A(4,5,6)              121.4545         estimate D2E/DX2                !
 ! A18   A(4,5,7)              118.1307         estimate D2E/DX2                !
 ! A19   A(6,5,7)              120.4139         estimate D2E/DX2                !
 ! A20   A(5,6,27)             109.5916         estimate D2E/DX2                !
 ! A21   A(5,6,28)             110.7947         estimate D2E/DX2                !
 ! A22   A(5,6,29)             110.7833         estimate D2E/DX2                !
 ! A23   A(27,6,28)            108.8774         estimate D2E/DX2                !
 ! A24   A(27,6,29)            110.1451         estimate D2E/DX2                !
 ! A25   A(28,6,29)            106.5943         estimate D2E/DX2                !
 ! A26   A(5,7,8)              123.024          estimate D2E/DX2                !
 ! A27   A(5,7,30)             119.0514         estimate D2E/DX2                !
 ! A28   A(8,7,30)             117.8878         estimate D2E/DX2                !
 ! A29   A(7,8,9)              121.1049         estimate D2E/DX2                !
 ! A30   A(7,8,10)             119.0712         estimate D2E/DX2                !
 ! A31   A(9,8,10)             119.655          estimate D2E/DX2                !
 ! A32   A(8,9,31)             110.8234         estimate D2E/DX2                !
 ! A33   A(8,9,32)             109.5272         estimate D2E/DX2                !
 ! A34   A(8,9,33)             110.8182         estimate D2E/DX2                !
 ! A35   A(31,9,32)            109.2468         estimate D2E/DX2                !
 ! A36   A(31,9,33)            107.5006         estimate D2E/DX2                !
 ! A37   A(32,9,33)            108.8728         estimate D2E/DX2                !
 ! A38   A(8,10,11)            120.6008         estimate D2E/DX2                !
 ! A39   A(8,10,34)            119.7366         estimate D2E/DX2                !
 ! A40   A(11,10,34)           119.6625         estimate D2E/DX2                !
 ! A41   A(4,11,10)            118.8721         estimate D2E/DX2                !
 ! A42   A(4,11,12)            122.542          estimate D2E/DX2                !
 ! A43   A(10,11,12)           118.5409         estimate D2E/DX2                !
 ! A44   A(11,12,35)           111.3223         estimate D2E/DX2                !
 ! A45   A(11,12,36)           109.8316         estimate D2E/DX2                !
 ! A46   A(11,12,37)           110.6853         estimate D2E/DX2                !
 ! A47   A(35,12,36)           107.6885         estimate D2E/DX2                !
 ! A48   A(35,12,37)           106.2222         estimate D2E/DX2                !
 ! A49   A(36,12,37)           111.0069         estimate D2E/DX2                !
 ! A50   A(3,13,14)            119.9448         estimate D2E/DX2                !
 ! A51   A(3,13,20)            119.5978         estimate D2E/DX2                !
 ! A52   A(14,13,20)           120.4558         estimate D2E/DX2                !
 ! A53   A(13,14,15)           122.1008         estimate D2E/DX2                !
 ! A54   A(13,14,16)           119.9466         estimate D2E/DX2                !
 ! A55   A(15,14,16)           117.952          estimate D2E/DX2                !
 ! A56   A(14,16,17)           120.4614         estimate D2E/DX2                !
 ! A57   A(14,16,38)           119.517          estimate D2E/DX2                !
 ! A58   A(17,16,38)           120.0208         estimate D2E/DX2                !
 ! A59   A(16,17,18)           119.7233         estimate D2E/DX2                !
 ! A60   A(16,17,39)           121.3494         estimate D2E/DX2                !
 ! A61   A(18,17,39)           118.9258         estimate D2E/DX2                !
 ! A62   A(17,18,19)           120.6315         estimate D2E/DX2                !
 ! A63   A(17,18,20)           120.328          estimate D2E/DX2                !
 ! A64   A(19,18,20)           119.0199         estimate D2E/DX2                !
 ! A65   A(13,20,18)           119.0717         estimate D2E/DX2                !
 ! A66   A(13,20,21)           122.2811         estimate D2E/DX2                !
 ! A67   A(18,20,21)           118.4674         estimate D2E/DX2                !
 ! A68   A(2,22,23)            102.775          estimate D2E/DX2                !
 ! A69   A(22,23,24)           122.4976         estimate D2E/DX2                !
 ! A70   A(22,23,25)           113.1545         estimate D2E/DX2                !
 ! A71   A(24,23,25)           124.312          estimate D2E/DX2                !
 ! A72   A(23,24,40)           110.0206         estimate D2E/DX2                !
 ! A73   A(23,24,41)           109.3878         estimate D2E/DX2                !
 ! A74   A(23,24,42)           109.5949         estimate D2E/DX2                !
 ! A75   A(40,24,41)           109.6848         estimate D2E/DX2                !
 ! A76   A(40,24,42)           108.4767         estimate D2E/DX2                !
 ! A77   A(41,24,42)           109.6608         estimate D2E/DX2                !
 ! A78   A(1,25,23)            106.9457         estimate D2E/DX2                !
 ! D1    D(25,1,2,3)           178.6832         estimate D2E/DX2                !
 ! D2    D(25,1,2,22)           -1.9318         estimate D2E/DX2                !
 ! D3    D(25,1,2,43)          164.6714         estimate D2E/DX2                !
 ! D4    D(26,1,2,3)             1.1278         estimate D2E/DX2                !
 ! D5    D(26,1,2,22)         -179.4872         estimate D2E/DX2                !
 ! D6    D(26,1,2,43)          -12.884          estimate D2E/DX2                !
 ! D7    D(2,1,25,23)            2.7259         estimate D2E/DX2                !
 ! D8    D(26,1,25,23)        -179.6546         estimate D2E/DX2                !
 ! D9    D(1,2,3,4)             15.6652         estimate D2E/DX2                !
 ! D10   D(1,2,3,13)          -164.7829         estimate D2E/DX2                !
 ! D11   D(22,2,3,4)          -163.6249         estimate D2E/DX2                !
 ! D12   D(22,2,3,13)           15.927          estimate D2E/DX2                !
 ! D13   D(1,2,22,23)            0.3283         estimate D2E/DX2                !
 ! D14   D(3,2,22,23)          179.7275         estimate D2E/DX2                !
 ! D15   D(43,2,22,23)        -154.5469         estimate D2E/DX2                !
 ! D16   D(2,3,4,5)           -117.5964         estimate D2E/DX2                !
 ! D17   D(2,3,4,11)            62.1304         estimate D2E/DX2                !
 ! D18   D(13,3,4,5)            62.8421         estimate D2E/DX2                !
 ! D19   D(13,3,4,11)         -117.4312         estimate D2E/DX2                !
 ! D20   D(43,3,4,5)          -106.8145         estimate D2E/DX2                !
 ! D21   D(43,3,4,11)           72.9122         estimate D2E/DX2                !
 ! D22   D(2,3,13,14)         -140.2881         estimate D2E/DX2                !
 ! D23   D(2,3,13,20)           39.2549         estimate D2E/DX2                !
 ! D24   D(4,3,13,14)           39.2682         estimate D2E/DX2                !
 ! D25   D(4,3,13,20)         -141.1889         estimate D2E/DX2                !
 ! D26   D(43,3,13,14)        -153.6094         estimate D2E/DX2                !
 ! D27   D(43,3,13,20)          25.9336         estimate D2E/DX2                !
 ! D28   D(3,4,5,6)             -0.1461         estimate D2E/DX2                !
 ! D29   D(3,4,5,7)            179.516          estimate D2E/DX2                !
 ! D30   D(11,4,5,6)          -179.8717         estimate D2E/DX2                !
 ! D31   D(11,4,5,7)            -0.2096         estimate D2E/DX2                !
 ! D32   D(3,4,11,10)         -179.072          estimate D2E/DX2                !
 ! D33   D(3,4,11,12)            3.4052         estimate D2E/DX2                !
 ! D34   D(5,4,11,10)            0.6542         estimate D2E/DX2                !
 ! D35   D(5,4,11,12)         -176.8686         estimate D2E/DX2                !
 ! D36   D(4,5,6,27)           -73.6205         estimate D2E/DX2                !
 ! D37   D(4,5,6,28)           166.2127         estimate D2E/DX2                !
 ! D38   D(4,5,6,29)            48.1209         estimate D2E/DX2                !
 ! D39   D(7,5,6,27)           106.725          estimate D2E/DX2                !
 ! D40   D(7,5,6,28)           -13.4417         estimate D2E/DX2                !
 ! D41   D(7,5,6,29)          -131.5336         estimate D2E/DX2                !
 ! D42   D(4,5,7,8)             -2.0751         estimate D2E/DX2                !
 ! D43   D(4,5,7,30)          -179.8213         estimate D2E/DX2                !
 ! D44   D(6,5,7,8)            177.5907         estimate D2E/DX2                !
 ! D45   D(6,5,7,30)            -0.1555         estimate D2E/DX2                !
 ! D46   D(5,7,8,9)            179.0701         estimate D2E/DX2                !
 ! D47   D(5,7,8,10)             3.8102         estimate D2E/DX2                !
 ! D48   D(30,7,8,9)            -3.159          estimate D2E/DX2                !
 ! D49   D(30,7,8,10)         -178.4189         estimate D2E/DX2                !
 ! D50   D(7,8,9,31)            33.4704         estimate D2E/DX2                !
 ! D51   D(7,8,9,32)           -87.1325         estimate D2E/DX2                !
 ! D52   D(7,8,9,33)           152.7332         estimate D2E/DX2                !
 ! D53   D(10,8,9,31)         -151.297          estimate D2E/DX2                !
 ! D54   D(10,8,9,32)           88.1002         estimate D2E/DX2                !
 ! D55   D(10,8,9,33)          -32.0342         estimate D2E/DX2                !
 ! D56   D(7,8,10,11)           -3.2503         estimate D2E/DX2                !
 ! D57   D(7,8,10,34)          176.8667         estimate D2E/DX2                !
 ! D58   D(9,8,10,11)         -178.5802         estimate D2E/DX2                !
 ! D59   D(9,8,10,34)            1.5368         estimate D2E/DX2                !
 ! D60   D(8,10,11,4)            1.0802         estimate D2E/DX2                !
 ! D61   D(8,10,11,12)         178.7031         estimate D2E/DX2                !
 ! D62   D(34,10,11,4)        -179.0366         estimate D2E/DX2                !
 ! D63   D(34,10,11,12)         -1.4137         estimate D2E/DX2                !
 ! D64   D(4,11,12,35)         160.7596         estimate D2E/DX2                !
 ! D65   D(4,11,12,36)         -80.0639         estimate D2E/DX2                !
 ! D66   D(4,11,12,37)          42.8592         estimate D2E/DX2                !
 ! D67   D(10,11,12,35)        -16.771          estimate D2E/DX2                !
 ! D68   D(10,11,12,36)        102.4055         estimate D2E/DX2                !
 ! D69   D(10,11,12,37)       -134.6715         estimate D2E/DX2                !
 ! D70   D(3,13,14,15)           0.1471         estimate D2E/DX2                !
 ! D71   D(3,13,14,16)         179.8653         estimate D2E/DX2                !
 ! D72   D(20,13,14,15)       -179.3919         estimate D2E/DX2                !
 ! D73   D(20,13,14,16)          0.3263         estimate D2E/DX2                !
 ! D74   D(3,13,20,18)         179.4368         estimate D2E/DX2                !
 ! D75   D(3,13,20,21)           4.3867         estimate D2E/DX2                !
 ! D76   D(14,13,20,18)         -1.0226         estimate D2E/DX2                !
 ! D77   D(14,13,20,21)       -176.0727         estimate D2E/DX2                !
 ! D78   D(13,14,16,17)          0.7399         estimate D2E/DX2                !
 ! D79   D(13,14,16,38)       -179.5795         estimate D2E/DX2                !
 ! D80   D(15,14,16,17)       -179.5303         estimate D2E/DX2                !
 ! D81   D(15,14,16,38)          0.1503         estimate D2E/DX2                !
 ! D82   D(14,16,17,18)         -1.0815         estimate D2E/DX2                !
 ! D83   D(14,16,17,39)        179.3694         estimate D2E/DX2                !
 ! D84   D(38,16,17,18)        179.2395         estimate D2E/DX2                !
 ! D85   D(38,16,17,39)         -0.3096         estimate D2E/DX2                !
 ! D86   D(16,17,18,19)        178.7018         estimate D2E/DX2                !
 ! D87   D(16,17,18,20)          0.3683         estimate D2E/DX2                !
 ! D88   D(39,17,18,19)         -1.7382         estimate D2E/DX2                !
 ! D89   D(39,17,18,20)        179.9283         estimate D2E/DX2                !
 ! D90   D(17,18,20,13)          0.6764         estimate D2E/DX2                !
 ! D91   D(17,18,20,21)        175.9164         estimate D2E/DX2                !
 ! D92   D(19,18,20,13)       -177.6837         estimate D2E/DX2                !
 ! D93   D(19,18,20,21)         -2.4437         estimate D2E/DX2                !
 ! D94   D(2,22,23,24)         179.3137         estimate D2E/DX2                !
 ! D95   D(2,22,23,25)           1.4065         estimate D2E/DX2                !
 ! D96   D(22,23,24,40)        159.1938         estimate D2E/DX2                !
 ! D97   D(22,23,24,41)         38.6436         estimate D2E/DX2                !
 ! D98   D(22,23,24,42)        -81.6134         estimate D2E/DX2                !
 ! D99   D(25,23,24,40)        -23.136          estimate D2E/DX2                !
 ! D100  D(25,23,24,41)       -143.6862         estimate D2E/DX2                !
 ! D101  D(25,23,24,42)         96.0568         estimate D2E/DX2                !
 ! D102  D(22,23,25,1)          -2.6562         estimate D2E/DX2                !
 ! D103  D(24,23,25,1)         179.4808         estimate D2E/DX2                !
 --------------------------------------------------------------------------------
 Trust Radius=3.00D-01 FncErr=1.00D-07 GrdErr=1.00D-06 EigMax=2.50D+02 EigMin=1.00D-04
 Number of steps in this run=    237 maximum allowed number of steps=    258.
 GradGradGradGradGradGradGradGradGradGradGradGradGradGradGradGradGradGrad

 Leave Link  103 at Fri Jan 24 16:52:55 2025, MaxMem=  3221225472 cpu:               1.1 elap:               0.1
 (Enter /software/gaussian/G16-C.01/avx2/g16/l202.exe)
                          Input orientation:                          
 ---------------------------------------------------------------------
 Center     Atomic      Atomic             Coordinates (Angstroms)
 Number     Number       Type             X           Y           Z
 ---------------------------------------------------------------------
      1          6           0       -0.232150    2.647495    0.870867
      2          6           0       -0.984903    1.503273    0.759421
      3          5           0       -0.542907    0.154691    0.098503
      4          6           0        0.989928   -0.119071   -0.190111
      5          6           0        1.444027   -0.303899   -1.536559
      6          6           0        0.495577   -0.247970   -2.696977
      7          6           0        2.795632   -0.531020   -1.745165
      8          6           0        3.722754   -0.545137   -0.722499
      9          6           0        5.170042   -0.815404   -0.994268
     10          6           0        3.279196   -0.400901    0.603619
     11          6           0        1.908902   -0.174536    0.885396
     12          6           0        1.482003   -0.056951    2.317936
     13          6           0       -1.626083   -0.978923   -0.289433
     14          6           0       -1.331446   -2.317098   -0.081943
     15          9           0       -0.153496   -2.719993    0.444427
     16          6           0       -2.278430   -3.306909   -0.418056
     17          6           0       -3.499009   -2.952709   -0.969936
     18          6           0       -3.804178   -1.593966   -1.175204
     19          9           0       -4.980487   -1.228377   -1.737189
     20          6           0       -2.872928   -0.596143   -0.829852
     21          9           0       -3.171027    0.695856   -1.121041
     22          7           0       -2.213582    1.727292    1.345408
     23          6           0       -2.115110    3.004872    1.765459
     24          6           0       -3.235787    3.710728    2.463491
     25          8           0       -0.957125    3.565984    1.457532
     26          1           0        0.781055    2.799843    0.502485
     27          1           0       -0.124397   -1.173598   -2.717747
     28          1           0        1.056782   -0.164238   -3.667447
     29          1           0       -0.160407    0.652667   -2.629323
     30          1           0        3.159750   -0.671444   -2.768992
     31          1           0        5.468471   -0.409898   -1.985419
     32          1           0        5.353579   -1.915307   -0.976664
     33          1           0        5.820496   -0.325674   -0.218814
     34          1           0        3.988526   -0.461137    1.414961
     35          1           0        2.269695   -0.464199    3.015484
     36          1           0        1.320208    1.020261    2.579061
     37          1           0        0.570616   -0.649726    2.502728
     38          1           0       -2.044015   -4.348269   -0.246931
     39          1           0       -4.225426   -3.694089   -1.240066
     40          1           0       -2.841396    4.574992    3.037896
     41          1           0       -3.744054    3.003846    3.153026
     42          1           0       -3.962654    4.088798    1.713275
     43          1           0       -0.680360    1.209421    0.378953
 ---------------------------------------------------------------------
                    Distance matrix (angstroms):
                    1          2          3          4          5
     1  C    0.000000
     2  C    1.374155   0.000000
     3  B    2.628153   1.565518   0.000000
     4  C    3.205158   2.726457   1.583612   0.000000
     5  C    4.161249   3.799617   2.613740   1.432930   0.000000
     6  C    4.652184   4.147934   3.009201   2.558392   1.499751
     7  C    5.110190   4.970285   3.874939   2.418359   1.386339
     8  C    5.326630   5.343604   4.399962   2.816613   2.431767
     9  C    6.682371   6.806984   5.896865   4.313340   3.799856
    10  C    4.657649   4.672547   3.895163   2.439300   2.820925
    11  C    3.542340   3.347390   2.595950   1.415735   2.469557
    12  C    3.513738   3.308911   3.011799   2.556618   3.862584
    13  C    4.054658   2.769929   1.615192   2.755490   3.381798
    14  C    5.173344   3.927242   2.600788   3.198719   3.724531
    15  F    5.384976   4.315836   2.921492   2.911160   3.509116
    16  C    6.426782   5.118352   3.906604   4.571262   4.911803
    17  C    6.739675   5.400665   4.419959   5.365462   5.636564
    18  C    5.910650   4.613456   3.913569   5.111670   5.416503
    19  F    6.661160   5.446069   4.997476   6.266567   6.493788
    20  C    4.515235   3.240058   2.618128   3.944429   4.384169
    21  F    4.051369   2.994528   2.947399   4.341000   4.740346
    22  N    2.235629   1.379572   2.611322   4.003667   5.080313
    23  C    2.115078   2.131732   3.657061   4.819184   5.875266
    24  C    3.562128   3.583740   5.048779   6.290122   7.349714
    25  O    1.308964   2.177822   3.695329   4.481671   5.450331
    26  H    1.088806   2.205837   2.985449   3.007221   3.772327
    27  H    5.243139   4.471778   3.141778   2.956804   2.147448
    28  H    5.492129   5.152303   4.104035   3.478271   2.170287
    29  H    4.029369   3.589834   2.799165   2.805103   2.164107
    30  H    5.980712   5.861504   4.755491   3.415241   2.144221
    31  H    7.071287   7.269140   6.387343   4.833742   4.050785
    32  H    7.445328   7.407904   6.341090   4.783993   4.265527
    33  H    6.830935   7.114453   6.389393   4.835070   4.570603
    34  H    5.270079   5.387359   4.758801   3.418312   3.900086
    35  H    4.532246   4.421897   4.099089   3.468827   4.629095
    36  H    2.824116   2.976227   3.220803   3.012553   4.325166
    37  H    3.765511   3.177132   2.768992   2.776473   4.147082
    38  H    7.312526   6.031170   4.759128   5.205204   5.494225
    39  H    7.785755   6.442942   5.492342   6.409607   6.612411
    40  H    3.901208   4.251291   5.784647   6.865370   7.943177
    41  H    4.203416   3.948921   5.262617   6.583294   7.736250
    42  H    4.087011   4.057311   5.457045   6.771787   7.686962
    43  H    1.584591   0.569079   1.100000   2.208752   3.236100
                    6          7          8          9         10
     6  C    0.000000
     7  C    2.505257   0.000000
     8  C    3.794936   1.380434   0.000000
     9  C    5.007177   2.506500   1.497179   0.000000
    10  C    4.320400   2.401572   1.405752   2.510051   0.000000
    11  C    3.851788   2.798789   2.452087   3.818230   1.417161
    12  C    5.114574   4.296411   3.808351   5.014736   2.507406
    13  C    3.291201   4.676680   5.383844   6.834534   5.019304
    14  C    3.802329   4.794701   5.393988   6.734744   5.039824
    15  F    4.049766   4.275894   4.595328   5.834155   4.145709
    16  C    4.716535   5.934045   6.613191   7.875237   6.354204
    17  C    5.123963   6.788819   7.616528   8.928668   7.411603
    18  C    4.755564   6.709113   7.613126   9.009746   7.400122
    19  F    5.645323   7.807329   8.788789  10.186055   8.624759
    20  C    3.867067   5.742352   6.596753   8.047638   6.319936
    21  F    4.101020   6.123379   7.015919   8.477819   6.766292
    22  N    5.251865   6.304271   6.684330   8.152134   5.937177
    23  C    6.108192   6.995885   7.271394   8.676638   6.484420
    24  C    7.498320   8.490184   8.756953  10.153814   7.925252
    25  O    5.823790   6.412947   6.599631   7.921494   5.866154
    26  H    4.428004   4.495008   4.619856   5.879923   4.061490
    27  H    1.114265   3.144104   4.379104   5.579406   4.817985
    28  H    1.124177   2.617880   3.990640   4.948617   4.820491
    29  H    1.116262   3.304696   4.488836   5.765616   4.836609
    30  H    2.698579   1.095684   2.126279   2.685451   3.385553
    31  H    5.026152   2.686347   2.158884   1.111699   3.390593
    32  H    5.416611   3.008312   2.145124   1.115250   3.015591
    33  H    5.873848   3.394366   2.168498   1.124391   2.672127
    34  H    5.399459   3.378501   2.155557   2.706634   1.079376
    35  H    5.985520   4.790078   4.011291   4.961197   2.615376
    36  H    5.488624   4.825171   4.372985   5.564132   3.124053
    37  H    5.215742   4.796810   4.510988   5.780239   3.317369
    38  H    5.409686   6.343365   6.924277   8.067358   6.681446
    39  H    6.023802   7.717213   8.564890   9.829652   8.400214
    40  H    8.202751   8.984715   9.134789  10.464122   8.255112
    41  H    7.922835   8.902530   9.130619  10.547408   8.210835
    42  H    7.624545   8.886953   9.299023  10.713921   8.592620
    43  H    3.601133   4.429845   4.866116   6.341361   4.280385
                   11         12         13         14         15
    11  C    0.000000
    12  C    1.499413   0.000000
    13  C    3.810955   4.160361   0.000000
    14  C    4.003271   4.333957   1.385849   0.000000
    15  F    3.305645   3.643719   2.395493   1.351649   0.000000
    16  C    5.389295   5.673512   2.421079   1.410488   2.367212
    17  C    6.356572   6.633702   2.804776   2.427109   3.639647
    18  C    6.236997   6.519827   2.430425   2.798668   4.149532
    19  F    7.446624   7.718812   3.662001   4.152186   5.503109
    20  C    5.097620   5.400437   1.411805   2.428419   3.678292
    21  F    5.530737   5.834721   2.425553   3.679902   4.819150
    22  N    4.563270   4.217426   3.215814   4.378652   4.983379
    23  C    5.203443   4.755966   4.509141   5.687741   6.194121
    24  C    6.637280   6.039382   5.671205   6.814722   7.411566
    25  O    4.746888   4.451438   4.914832   6.092681   6.417610
    26  H    3.203997   3.456655   4.549783   5.566625   5.598692
    27  H    4.256180   5.402362   2.861759   3.116411   3.520160
    28  H    4.631910   6.001427   4.390041   4.816044   4.990407
    29  H    4.161677   5.260840   3.207083   4.084114   4.563203
    30  H    3.894367   5.391593   5.398792   5.486279   5.049774
    31  H    4.579028   5.876679   7.316615   7.314336   6.545778
    32  H    4.285248   5.412669   7.075648   6.756592   5.744119
    33  H    4.067271   5.032875   7.475511   7.425280   6.470026
    34  H    2.165044   2.694696   5.890407   5.829873   4.816712
    35  H    2.179759   1.128222   5.134638   5.098579   4.191754
    36  H    2.154670   1.120156   4.572266   5.024955   4.551699
    37  H    2.152343   1.102796   3.567915   3.616420   3.007814
    38  H    5.858990   6.117741   3.395433   2.158849   2.589077
    39  H    7.384769   7.646103   3.877165   3.407707   4.512980
    40  H    7.053836   6.376913   6.587418   7.714549   8.195590
    41  H    6.870238   6.113716   5.674396   6.678185   7.279488
    42  H    7.303188   6.870016   5.928928   7.154129   7.904384
    43  H    2.979278   3.168464   2.475880   3.615616   3.965119
                   16         17         18         19         20
    16  C    0.000000
    17  C    1.385583   0.000000
    18  C    2.415648   1.407638   0.000000
    19  F    3.655341   2.399328   1.353952   0.000000
    20  C    2.805576   2.442336   1.407887   2.380081   0.000000
    21  F    4.160895   3.666393   2.376363   2.712279   1.357541
    22  N    5.334529   5.377319   4.462537   5.088630   3.250361
    23  C    6.680793   6.700026   5.713998   6.196720   4.503026
    24  C    7.646377   7.500607   6.457782   6.714496   5.433867
    25  O    7.245712   7.405886   6.454618   7.027061   5.121106
    26  H    6.892044   7.319756   6.568452   7.378216   5.163278
    27  H    3.805188   4.196199   4.012098   4.954402   3.384084
    28  H    5.617701   5.983926   5.646621   6.427045   4.866324
    29  H    5.005395   5.186383   4.520939   5.250467   3.486459
    30  H    6.484318   7.264973   7.203297   8.224247   6.337124
    31  H    8.418063   9.376182   9.382989  10.483904   8.423120
    32  H    7.777929   8.913168   9.165544  10.384758   8.332897
    33  H    8.632501   9.711780   9.754876  10.944477   8.719068
    34  H    7.122718   8.243716   8.289662   9.537709   7.220593
    35  H    6.368331   7.440040   7.465264   8.702701   6.422662
    36  H    6.376308   7.183642   6.869353   7.961478   5.640552
    37  H    4.869154   5.824515   5.792892   7.009028   4.792385
    38  H    1.081047   2.141805   3.397947   4.536239   3.886559
    39  H    2.148581   1.072518   2.142935   2.626210   3.405112
    40  H    8.624669   8.553448   7.532145   7.813850   6.457640
    41  H    7.397723   7.248408   6.314829   6.584428   5.438943
    42  H    7.878811   7.549663   6.376694   6.419816   5.440925
    43  H    4.856572   5.204576   4.475782   5.376989   3.086847
                   21         22         23         24         25
    21  F    0.000000
    22  N    2.839707   0.000000
    23  C    3.844269   1.348462   0.000000
    24  C    4.684284   2.495802   1.497130   0.000000
    25  O    4.448374   2.229808   1.323101   2.495036   0.000000
    26  H    4.762515   3.290705   3.166214   4.561828   2.126113
    27  H    3.914879   5.411939   6.443732   7.770625   6.371030
    28  H    5.009821   6.277092   7.044191   8.427925   6.650999
    29  H    3.367582   4.600960   5.354236   6.689279   5.081787
    30  H    6.683112   7.180175   7.867699   9.353353   7.264156
    31  H    8.752757   8.641523   9.123620  10.608320   8.303603
    32  H    8.916722   8.713351   9.354610  10.828858   8.706024
    33  H    9.094230   8.438476   8.831972  10.271493   7.993203
    34  H    7.683042   6.577249   7.027833   8.408007   6.378008
    35  H    6.932389   5.262277   5.729182   6.931453   5.392769
    36  H    5.828137   3.809129   4.049943   5.292358   3.595105
    37  H    5.379794   3.839448   4.594865   5.788247   4.604199
    38  H    5.241891   6.283052   7.623874   8.585694   8.168349
    39  H    4.516364   6.334316   7.639548   8.338287   8.406395
    40  H    5.696763   3.371655   2.147525   1.110152   2.658218
    41  H    4.891097   2.690616   2.139813   1.110619   3.310237
    42  H    4.491333   2.961635   2.142670   1.110899   3.061362
    43  H    2.952482   1.884939   2.684130   4.139087   2.606400
                   26         27         28         29         30
    26  H    0.000000
    27  H    5.194032   0.000000
    28  H    5.123489   1.820967   0.000000
    29  H    3.912152   1.828759   1.796270   0.000000
    30  H    5.330158   3.322711   2.342424   3.577180   0.000000
    31  H    6.201933   5.692075   4.727850   5.764367   2.452058
    32  H    6.732645   5.795665   5.363676   6.303159   3.093950
    33  H    5.973701   6.504260   5.883205   6.522186   3.701694
    34  H    4.664169   5.873926   5.874873   5.900037   4.270429
    35  H    4.380090   6.253388   6.798728   6.246330   5.856220
    36  H    2.787430   5.912366   6.363276   5.427210   5.903173
    37  H    3.993093   5.292527   6.208310   5.344958   5.873255
    38  H    7.722574   4.457398   6.230649   5.850909   6.852664
    39  H    8.382869   5.035360   6.801010   6.111358   8.124950
    40  H    4.764621   8.576467   9.089429   7.395249   9.861987
    41  H    5.248199   8.063431   8.922087   7.197647   9.810227
    42  H    5.062626   7.877751   8.499130   6.717308   9.668466
    43  H    2.163432   3.946824   4.612803   3.103232   5.309770
                   31         32         33         34         35
    31  H    0.000000
    32  H    1.815776   0.000000
    33  H    1.803305   1.821889   0.000000
    34  H    3.708833   3.114137   2.458390   0.000000
    35  H    5.936678   5.249124   4.805004   2.348631   0.000000
    36  H    6.331502   6.126078   5.467380   3.266434   1.815382
    37  H    6.647553   6.048521   5.922250   3.591785   1.784435
    38  H    8.658554   7.821523   8.833606   7.366358   6.658637
    39  H   10.262217   9.746321  10.644704   9.217925   8.410023
    40  H   10.914976  11.198138  10.471441   8.639696   7.177548
    41  H   11.087284  11.136397  10.674063   8.649842   6.943445
    42  H   11.084435  11.405141  10.905528   9.165814   7.827368
    43  H    6.783846   6.928929   6.706339   5.065824   4.295943
                   36         37         38         39         40
    36  H    0.000000
    37  H    1.832095   0.000000
    38  H    6.937242   5.298692   0.000000
    39  H    8.219785   6.802842   2.484516   0.000000
    40  H    5.492321   6.263059   9.542038   9.412449   0.000000
    41  H    5.469076   5.691032   8.276680   8.024544   1.815639
    42  H    6.170423   6.605102   8.871734   8.328540   1.802284
    43  H    2.979686   3.087360   5.756666   6.263634   4.802825
                   41         42         43
    41  H    0.000000
    42  H    1.815982   0.000000
    43  H    4.505736   4.565597   0.000000
 Stoichiometry    C19H18BF3NO(1-)
 Framework group  C1[X(C19H18BF3NO)]
 Deg. of freedom   123
 Full point group                 C1      NOp   1
 Largest Abelian subgroup         C1      NOp   1
 Largest concise Abelian subgroup C1      NOp   1
                         Standard orientation:                         
 ---------------------------------------------------------------------
 Center     Atomic      Atomic             Coordinates (Angstroms)
 Number     Number       Type             X           Y           Z
 ---------------------------------------------------------------------
      1          6           0       -0.090379    2.815132   -0.543445
      2          6           0       -0.694825    1.677932   -0.064151
      3          5           0       -0.058129    0.250978    0.032110
      4          6           0        1.510767    0.075396   -0.092646
      5          6           0        2.062982   -0.689910   -1.170910
      6          6           0        1.185457   -1.341560   -2.197825
      7          6           0        3.441964   -0.809760   -1.248256
      8          6           0        4.301628   -0.193212   -0.361439
      9          6           0        5.784312   -0.368748   -0.472717
     10          6           0        3.765864    0.528563    0.719364
     11          6           0        2.364084    0.681518    0.860650
     12          6           0        1.841632    1.435288    2.046868
     13          6           0       -0.974862   -1.057613    0.268832
     14          6           0       -0.537242   -2.065196    1.113724
     15          9           0        0.646528   -1.995087    1.762360
     16          6           0       -1.339042   -3.206654    1.322691
     17          6           0       -2.557798   -3.336838    0.676527
     18          6           0       -3.008417   -2.311883   -0.176618
     19          9           0       -4.184034   -2.431443   -0.837538
     20          6           0       -2.223710   -1.161048   -0.381455
     21          9           0       -2.654320   -0.235012   -1.275855
     22          7           0       -1.974098    1.998166    0.340979
     23          6           0       -2.052329    3.316270    0.067427
     24          6           0       -3.288100    4.120023    0.328676
     25          8           0       -0.952378    3.798607   -0.487599
     26          1           0        0.917914    2.897386   -0.946036
     27          1           0        0.681416   -2.228615   -1.749873
     28          1           0        1.789721   -1.675967   -3.084849
     29          1           0        0.424899   -0.621233   -2.583469
     30          1           0        3.880510   -1.389106   -2.068354
     31          1           0        6.091361   -0.471756   -1.536195
     32          1           0        6.095007   -1.280376    0.089586
     33          1           0        6.325011    0.521585   -0.049390
     34          1           0        4.427694    0.972136    1.447566
     35          1           0        2.628878    1.534867    2.848872
     36          1           0        1.538545    2.468280    1.737330
     37          1           0        0.997193    0.897362    2.509164
     38          1           0       -0.993980   -3.985289    1.988515
     39          1           0       -3.174224   -4.203160    0.817238
     40          1           0       -3.033431    5.198663    0.392849
     41          1           0       -3.749588    3.787198    1.282474
     42          1           0       -4.008470    3.977344   -0.504875
     43          1           0       -0.335586    1.277444   -0.249644
 ---------------------------------------------------------------------
 Rotational constants (GHZ):           0.2646260           0.1843527           0.1294638
 Leave Link  202 at Fri Jan 24 16:52:55 2025, MaxMem=  3221225472 cpu:               0.1 elap:               0.0
 (Enter /software/gaussian/G16-C.01/avx2/g16/l301.exe)
 Standard basis: def2SVP (5D, 7F)
 Ernie: Thresh=  0.10000D-02 Tol=  0.10000D-05 Strict=F.
 There are   465 symmetry adapted cartesian basis functions of A   symmetry.
 There are   440 symmetry adapted basis functions of A   symmetry.
   440 basis functions,   751 primitive gaussians,   465 cartesian basis functions
    90 alpha electrons       90 beta electrons
       nuclear repulsion energy      2193.5873805478 Hartrees.
 IExCor= 1009 DFT=T Ex+Corr=PBE1PBE ExCW=0 ScaHFX=  0.250000
 ScaDFX=  0.750000  0.750000  1.000000  1.000000 ScalE2=  1.000000  1.000000
 IRadAn=      5 IRanWt=     -1 IRanGd=            0 ICorTp=0 IEmpDi=141
 NAtoms=   43 NActive=   43 NUniq=   43 SFac= 1.00D+00 NAtFMM=   60 NAOKFM=F Big=F
 Integral buffers will be    131072 words long.
 Raffenetti 2 integral format.
 Two-electron integral symmetry is turned on.
 R6Disp:  Grimme-D3(BJ) Dispersion energy=       -0.0509138394 Hartrees.
 Nuclear repulsion after empirical dispersion term =     2193.5364667084 Hartrees.
 Leave Link  301 at Fri Jan 24 16:52:55 2025, MaxMem=  3221225472 cpu:               1.9 elap:               0.1
 (Enter /software/gaussian/G16-C.01/avx2/g16/l302.exe)
 NPDir=0 NMtPBC=     1 NCelOv=     1 NCel=       1 NClECP=     1 NCelD=      1
         NCelK=      1 NCelE2=     1 NClLst=     1 CellRange=     0.0.
 One-electron integrals computed using PRISM.
 One-electron integral symmetry used in STVInt
   1 Symmetry operations used in ECPInt.
 ECPInt:  NShTT=   20910 NPrTT=   76624 LenC2=   18575 LenP2D=   46100.
 LDataN:  DoStor=T MaxTD1= 4 Len=   56
 NBasis=   440 RedAO= T EigKep=  7.66D-05  NBF=   440
 NBsUse=   440 1.00D-06 EigRej= -1.00D+00 NBFU=   440
 Precomputing XC quadrature grid using
 IXCGrd= 4 IRadAn=           5 IRanWt=          -1 IRanGd=           0 AccXCQ= 0.00D+00.
 Generated NRdTot=       0 NPtTot=           0 NUsed=           0 NTot=          32
 NSgBfM=   462   462   462   462   462 MxSgAt=    43 MxSgA2=    43.
 Leave Link  302 at Fri Jan 24 16:52:55 2025, MaxMem=  3221225472 cpu:              11.6 elap:               0.5
 (Enter /software/gaussian/G16-C.01/avx2/g16/l303.exe)
 DipDrv:  MaxL=1.
 Leave Link  303 at Fri Jan 24 16:52:55 2025, MaxMem=  3221225472 cpu:               1.8 elap:               0.1
 (Enter /software/gaussian/G16-C.01/avx2/g16/l401.exe)
 ExpMin= 8.36D-02 ExpMax= 2.89D+03 ExpMxC= 4.35D+02 IAcc=3 IRadAn=         5 AccDes= 0.00D+00
 Harris functional with IExCor= 1009 and IRadAn=       5 diagonalized for initial guess.
 HarFok:  IExCor= 1009 AccDes= 0.00D+00 IRadAn=         5 IDoV= 1 UseB2=F ITyADJ=14
 ICtDFT=  3500011 ScaDFX=  1.000000  1.000000  1.000000  1.000000
 FoFCou: FMM=F IPFlag=           0 FMFlag=      100000 FMFlg1=           0
         NFxFlg=           0 DoJE=T BraDBF=F KetDBF=T FulRan=T
         wScrn=  0.000000 ICntrl=       500 IOpCl=  0 I1Cent=   200000004 NGrid=           0
         NMat0=    1 NMatS0=      1 NMatT0=    0 NMatD0=    1 NMtDS0=    0 NMtDT0=    0
 Petite list used in FoFCou.
 Harris En= -1186.78222861989    
 JPrj=0 DoOrth=F DoCkMO=F.
 Leave Link  401 at Fri Jan 24 16:52:57 2025, MaxMem=  3221225472 cpu:              29.9 elap:               1.3
 (Enter /software/gaussian/G16-C.01/avx2/g16/l502.exe)
 Integral symmetry usage will be decided dynamically.
 Closed shell SCF:
 Using DIIS extrapolation, IDIIS=  1040.
 NGot=  3221225472 LenX=  3220775940 LenY=  3220559250
 Requested convergence on RMS density matrix=1.00D-08 within 128 cycles.
 Requested convergence on MAX density matrix=1.00D-06.
 Requested convergence on             energy=1.00D-06.
 No special actions if energy rises.
 Fock matrices will be formed incrementally for  20 cycles.
 Integral accuracy reduced to 1.0D-05 until final iterations.

 Cycle   1  Pass 0  IDiag  1:
 FoFJK:  IHMeth= 1 ICntrl=       0 DoSepK=F KAlg= 0 I1Cent=           0 FoldK=F
 IRaf= 810000000 NMat=       1 IRICut=       1 DoRegI=T DoRafI=F ISym2E= 0 IDoP0=0 IntGTp=1.
 FoFCou: FMM=F IPFlag=           0 FMFlag=      100000 FMFlg1=           0
         NFxFlg=           0 DoJE=F BraDBF=F KetDBF=F FulRan=T
         wScrn=  0.000000 ICntrl=         0 IOpCl=  0 I1Cent=           0 NGrid=           0
         NMat0=    1 NMatS0=      1 NMatT0=    0 NMatD0=    1 NMtDS0=    0 NMtDT0=    0
 Symmetry not used in FoFCou.
 E= -1185.62956099838    
 DIIS: error= 2.24D-02 at cycle   1 NSaved=   1.
 NSaved= 1 IEnMin= 1 EnMin= -1185.62956099838     IErMin= 1 ErrMin= 2.24D-02
 ErrMax= 2.24D-02  0.00D+00 EMaxC= 1.00D-01 BMatC= 6.01D-01 BMatP= 6.01D-01
 IDIUse=3 WtCom= 7.76D-01 WtEn= 2.24D-01
 Coeff-Com:  0.100D+01
 Coeff-En:   0.100D+01
 Coeff:      0.100D+01
 Gap=     0.108 Goal=   None    Shift=    0.000
 GapD=    0.108 DampG=1.000 DampE=0.500 DampFc=0.5000 IDamp=-1.
 Damping current iteration by 5.00D-01
 RMSDP=1.24D-02 MaxDP=1.52D+00              OVMax= 9.16D-01

 Cycle   2  Pass 0  IDiag  1:
 RMSU=  4.92D-03    CP:  8.73D-01
 E= -1185.70277701819     Delta-E=       -0.073216019814 Rises=F Damp=T
 DIIS: error= 1.11D-02 at cycle   2 NSaved=   2.
 NSaved= 2 IEnMin= 2 EnMin= -1185.70277701819     IErMin= 2 ErrMin= 1.11D-02
 ErrMax= 1.11D-02  0.00D+00 EMaxC= 1.00D-01 BMatC= 1.28D-01 BMatP= 6.01D-01
 IDIUse=3 WtCom= 8.89D-01 WtEn= 1.11D-01
 Coeff-Com:  0.226D+00 0.774D+00
 Coeff-En:   0.446D+00 0.554D+00
 Coeff:      0.250D+00 0.750D+00
 Gap=     0.053 Goal=   None    Shift=    0.000
 RMSDP=6.09D-03 MaxDP=4.04D-01 DE=-7.32D-02 OVMax= 8.37D-01

 Cycle   3  Pass 0  IDiag  1:
 RMSU=  5.13D-03    CP:  8.95D-01  3.46D-01
 E= -1186.00804163263     Delta-E=       -0.305264614434 Rises=F Damp=F
 DIIS: error= 1.54D-02 at cycle   3 NSaved=   3.
 NSaved= 3 IEnMin= 3 EnMin= -1186.00804163263     IErMin= 2 ErrMin= 1.11D-02
 ErrMax= 1.54D-02  0.00D+00 EMaxC= 1.00D-01 BMatC= 2.62D-01 BMatP= 1.28D-01
 IDIUse=2 WtCom= 0.00D+00 WtEn= 1.00D+00
 Coeff-En:   0.000D+00 0.263D+00 0.737D+00
 Coeff:      0.000D+00 0.263D+00 0.737D+00
 Gap=     0.089 Goal=   None    Shift=    0.000
 RMSDP=8.26D-03 MaxDP=1.09D+00 DE=-3.05D-01 OVMax= 9.02D-01

 Cycle   4  Pass 0  IDiag  1:
 RMSU=  3.36D-03    CP:  7.82D-01  1.31D+00  6.40D-02
 E= -1185.36820159042     Delta-E=        0.639840042207 Rises=F Damp=F
 DIIS: error= 2.47D-02 at cycle   4 NSaved=   4.
 NSaved= 4 IEnMin= 3 EnMin= -1186.00804163263     IErMin= 2 ErrMin= 1.11D-02
 ErrMax= 2.47D-02  0.00D+00 EMaxC= 1.00D-01 BMatC= 6.76D-01 BMatP= 1.28D-01
 IDIUse=2 WtCom= 0.00D+00 WtEn= 1.00D+00
 Coeff-En:   0.000D+00 0.000D+00 0.695D+00 0.305D+00
 Coeff:      0.000D+00 0.000D+00 0.695D+00 0.305D+00
 Gap=    -0.016 Goal=   None    Shift=    0.000
 RMSDP=4.80D-03 MaxDP=4.88D-01 DE= 6.40D-01 OVMax= 8.34D-01

 Cycle   5  Pass 0  IDiag  1:
 RMSU=  3.59D-03    CP:  7.50D-01  7.94D-01  2.15D-01  5.63D-01
 E= -1186.28525683624     Delta-E=       -0.917055245820 Rises=F Damp=F
 DIIS: error= 3.93D-03 at cycle   5 NSaved=   5.
 NSaved= 5 IEnMin= 5 EnMin= -1186.28525683624     IErMin= 5 ErrMin= 3.93D-03
 ErrMax= 3.93D-03  0.00D+00 EMaxC= 1.00D-01 BMatC= 1.99D-02 BMatP= 1.28D-01
 IDIUse=3 WtCom= 9.61D-01 WtEn= 3.93D-02
 Coeff-Com: -0.118D-01 0.131D+00 0.218D+00-0.160D-01 0.679D+00
 Coeff-En:   0.000D+00 0.000D+00 0.277D-01 0.000D+00 0.972D+00
 Coeff:     -0.113D-01 0.126D+00 0.211D+00-0.153D-01 0.690D+00
 Gap=     0.086 Goal=   None    Shift=    0.000
 RMSDP=1.32D-03 MaxDP=1.39D-01 DE=-9.17D-01 OVMax= 1.37D-01

 Cycle   6  Pass 0  IDiag  1:
 RMSU=  1.10D-03    CP:  7.61D-01  7.47D-01  1.50D-01  4.13D-01  1.02D+00
 E= -1186.30074260359     Delta-E=       -0.015485767350 Rises=F Damp=F
 DIIS: error= 2.63D-03 at cycle   6 NSaved=   6.
 NSaved= 6 IEnMin= 6 EnMin= -1186.30074260359     IErMin= 6 ErrMin= 2.63D-03
 ErrMax= 2.63D-03  0.00D+00 EMaxC= 1.00D-01 BMatC= 6.44D-03 BMatP= 1.99D-02
 IDIUse=3 WtCom= 9.74D-01 WtEn= 2.63D-02
 Coeff-Com: -0.221D-01 0.462D-01 0.776D-01-0.251D-01 0.470D+00 0.453D+00
 Coeff-En:   0.000D+00 0.000D+00 0.000D+00 0.000D+00 0.248D+00 0.752D+00
 Coeff:     -0.215D-01 0.449D-01 0.755D-01-0.244D-01 0.464D+00 0.461D+00
 Gap=     0.096 Goal=   None    Shift=    0.000
 RMSDP=5.86D-04 MaxDP=9.27D-02 DE=-1.55D-02 OVMax= 4.48D-02

 Cycle   7  Pass 0  IDiag  1:
 RMSU=  2.53D-04    CP:  7.53D-01  7.81D-01  1.63D-01  4.53D-01  1.05D+00
                    CP:  6.41D-01
 E= -1186.30808477052     Delta-E=       -0.007342166933 Rises=F Damp=F
 DIIS: error= 4.36D-04 at cycle   7 NSaved=   7.
 NSaved= 7 IEnMin= 7 EnMin= -1186.30808477052     IErMin= 7 ErrMin= 4.36D-04
 ErrMax= 4.36D-04  0.00D+00 EMaxC= 1.00D-01 BMatC= 2.06D-04 BMatP= 6.44D-03
 IDIUse=3 WtCom= 9.96D-01 WtEn= 4.36D-03
 Coeff-Com: -0.923D-02 0.182D-01 0.323D-01-0.124D-01 0.200D+00 0.201D+00
 Coeff-Com:  0.570D+00
 Coeff-En:   0.000D+00 0.000D+00 0.000D+00 0.000D+00 0.000D+00 0.000D+00
 Coeff-En:   0.100D+01
 Coeff:     -0.919D-02 0.182D-01 0.322D-01-0.124D-01 0.199D+00 0.200D+00
 Coeff:      0.572D+00
 Gap=     0.095 Goal=   None    Shift=    0.000
 RMSDP=1.96D-04 MaxDP=3.39D-02 DE=-7.34D-03 OVMax= 1.29D-02

 Cycle   8  Pass 0  IDiag  1:
 RMSU=  1.09D-04    CP:  7.55D-01  7.70D-01  1.57D-01  4.33D-01  1.05D+00
                    CP:  7.21D-01  7.71D-01
 E= -1186.30819517741     Delta-E=       -0.000110406885 Rises=F Damp=F
 DIIS: error= 2.89D-04 at cycle   8 NSaved=   8.
 NSaved= 8 IEnMin= 8 EnMin= -1186.30819517741     IErMin= 8 ErrMin= 2.89D-04
 ErrMax= 2.89D-04  0.00D+00 EMaxC= 1.00D-01 BMatC= 9.49D-05 BMatP= 2.06D-04
 IDIUse=3 WtCom= 9.97D-01 WtEn= 2.89D-03
 Coeff-Com: -0.562D-03 0.827D-03 0.663D-02-0.282D-02 0.247D-01 0.734D-02
 Coeff-Com:  0.387D+00 0.577D+00
 Coeff-En:   0.000D+00 0.000D+00 0.000D+00 0.000D+00 0.000D+00 0.000D+00
 Coeff-En:   0.340D+00 0.660D+00
 Coeff:     -0.560D-03 0.824D-03 0.661D-02-0.281D-02 0.246D-01 0.732D-02
 Coeff:      0.387D+00 0.577D+00
 Gap=     0.094 Goal=   None    Shift=    0.000
 RMSDP=6.44D-05 MaxDP=3.11D-03 DE=-1.10D-04 OVMax= 1.26D-02

 Cycle   9  Pass 0  IDiag  1:
 RMSU=  4.11D-05    CP:  7.55D-01  7.70D-01  1.57D-01  4.31D-01  1.05D+00
                    CP:  7.16D-01  9.61D-01  9.55D-01
 E= -1186.30831462356     Delta-E=       -0.000119446151 Rises=F Damp=F
 DIIS: error= 2.13D-04 at cycle   9 NSaved=   9.
 NSaved= 9 IEnMin= 9 EnMin= -1186.30831462356     IErMin= 9 ErrMin= 2.13D-04
 ErrMax= 2.13D-04  0.00D+00 EMaxC= 1.00D-01 BMatC= 1.51D-05 BMatP= 9.49D-05
 IDIUse=3 WtCom= 9.98D-01 WtEn= 2.13D-03
 Coeff-Com:  0.411D-03-0.201D-02 0.292D-02-0.347D-03 0.337D-02-0.155D-01
 Coeff-Com:  0.179D+00 0.389D+00 0.444D+00
 Coeff-En:   0.000D+00 0.000D+00 0.000D+00 0.000D+00 0.000D+00 0.000D+00
 Coeff-En:   0.000D+00 0.000D+00 0.100D+01
 Coeff:      0.410D-03-0.200D-02 0.291D-02-0.346D-03 0.336D-02-0.155D-01
 Coeff:      0.178D+00 0.388D+00 0.445D+00
 Gap=     0.094 Goal=   None    Shift=    0.000
 RMSDP=5.09D-05 MaxDP=1.18D-02 DE=-1.19D-04 OVMax= 1.95D-03

 Cycle  10  Pass 0  IDiag  1:
 RMSU=  1.68D-05    CP:  7.57D-01  7.67D-01  1.56D-01  4.27D-01  1.04D+00
                    CP:  7.32D-01  9.38D-01  1.14D+00  1.03D+00
 E= -1186.30832957411     Delta-E=       -0.000014950547 Rises=F Damp=F
 DIIS: error= 3.52D-05 at cycle  10 NSaved=  10.
 NSaved=10 IEnMin=10 EnMin= -1186.30832957411     IErMin=10 ErrMin= 3.52D-05
 ErrMax= 3.52D-05  0.00D+00 EMaxC= 1.00D-01 BMatC= 1.27D-06 BMatP= 1.51D-05
 IDIUse=1 WtCom= 1.00D+00 WtEn= 0.00D+00
 Coeff-Com:  0.556D-03-0.129D-02 0.935D-04 0.282D-03-0.450D-02-0.147D-01
 Coeff-Com: -0.298D-01 0.648D-01 0.907D-01 0.894D+00
 Coeff:      0.556D-03-0.129D-02 0.935D-04 0.282D-03-0.450D-02-0.147D-01
 Coeff:     -0.298D-01 0.648D-01 0.907D-01 0.894D+00
 Gap=     0.094 Goal=   None    Shift=    0.000
 RMSDP=2.91D-05 MaxDP=5.52D-03 DE=-1.50D-05 OVMax= 2.47D-03

 Cycle  11  Pass 0  IDiag  1:
 RMSU=  5.99D-06    CP:  7.57D-01  7.66D-01  1.55D-01  4.24D-01  1.04D+00
                    CP:  7.42D-01  9.50D-01  1.27D+00  1.20D+00  1.24D+00
 E= -1186.30832940264     Delta-E=        0.000000171470 Rises=F Damp=F
 DIIS: error= 2.94D-05 at cycle  11 NSaved=  11.
 NSaved=11 IEnMin=10 EnMin= -1186.30832957411     IErMin=11 ErrMin= 2.94D-05
 ErrMax= 2.94D-05  0.00D+00 EMaxC= 1.00D-01 BMatC= 4.74D-07 BMatP= 1.27D-06
 IDIUse=1 WtCom= 1.00D+00 WtEn= 0.00D+00
 Coeff-Com:  0.237D-03-0.201D-03-0.181D-04 0.380D-04-0.187D-02-0.616D-02
 Coeff-Com: -0.379D-01-0.467D-02-0.526D-01 0.531D+00 0.572D+00
 Coeff:      0.237D-03-0.201D-03-0.181D-04 0.380D-04-0.187D-02-0.616D-02
 Coeff:     -0.379D-01-0.467D-02-0.526D-01 0.531D+00 0.572D+00
 Gap=     0.094 Goal=   None    Shift=    0.000
 RMSDP=1.15D-05 MaxDP=2.70D-03 DE= 1.71D-07 OVMax= 5.32D-04

 Cycle  12  Pass 0  IDiag  1:
 RMSU=  2.49D-06    CP:  7.57D-01  7.65D-01  1.55D-01  4.23D-01  1.04D+00
                    CP:  7.45D-01  9.50D-01  1.30D+00  1.24D+00  1.41D+00
                    CP:  9.81D-01
 E= -1186.30832866852     Delta-E=        0.000000734118 Rises=F Damp=F
 DIIS: error= 7.88D-06 at cycle  12 NSaved=  12.
 NSaved=12 IEnMin=10 EnMin= -1186.30832957411     IErMin=12 ErrMin= 7.88D-06
 ErrMax= 7.88D-06  0.00D+00 EMaxC= 1.00D-01 BMatC= 6.00D-08 BMatP= 4.74D-07
 IDIUse=1 WtCom= 1.00D+00 WtEn= 0.00D+00
 Coeff-Com:  0.226D-04 0.474D-04 0.300D-04-0.979D-05 0.102D-03-0.786D-03
 Coeff-Com: -0.132D-01-0.905D-02-0.648D-01 0.135D+00 0.309D+00 0.643D+00
 Coeff:      0.226D-04 0.474D-04 0.300D-04-0.979D-05 0.102D-03-0.786D-03
 Coeff:     -0.132D-01-0.905D-02-0.648D-01 0.135D+00 0.309D+00 0.643D+00
 Gap=     0.094 Goal=   None    Shift=    0.000
 RMSDP=5.86D-06 MaxDP=1.30D-03 DE= 7.34D-07 OVMax= 2.56D-04

 Cycle  13  Pass 0  IDiag  1:
 RMSU=  1.56D-06    CP:  7.57D-01  7.65D-01  1.55D-01  4.22D-01  1.04D+00
                    CP:  7.47D-01  9.48D-01  1.32D+00  1.27D+00  1.48D+00
                    CP:  1.10D+00  1.14D+00
 E= -1186.30832739128     Delta-E=        0.000001277241 Rises=F Damp=F
 DIIS: error= 5.06D-06 at cycle  13 NSaved=  13.
 NSaved=13 IEnMin=10 EnMin= -1186.30832957411     IErMin=13 ErrMin= 5.06D-06
 ErrMax= 5.06D-06  0.00D+00 EMaxC= 1.00D-01 BMatC= 1.04D-08 BMatP= 6.00D-08
 IDIUse=1 WtCom= 1.00D+00 WtEn= 0.00D+00
 Coeff-Com: -0.147D-04 0.494D-04-0.170D-04 0.139D-05 0.170D-03 0.155D-03
 Coeff-Com: -0.357D-02-0.442D-02-0.364D-01 0.170D-01 0.100D+00 0.377D+00
 Coeff-Com:  0.550D+00
 Coeff:     -0.147D-04 0.494D-04-0.170D-04 0.139D-05 0.170D-03 0.155D-03
 Coeff:     -0.357D-02-0.442D-02-0.364D-01 0.170D-01 0.100D+00 0.377D+00
 Coeff:      0.550D+00
 Gap=     0.094 Goal=   None    Shift=    0.000
 RMSDP=1.50D-06 MaxDP=1.20D-04 DE= 1.28D-06 OVMax= 6.12D-05

 Initial convergence to 1.0D-05 achieved.  Increase integral accuracy.
 Cycle  14  Pass 1  IDiag  1:
 E= -1186.30829102309     Delta-E=        0.000036368182 Rises=F Damp=F
 DIIS: error= 1.83D-04 at cycle   1 NSaved=   1.
 NSaved= 1 IEnMin= 1 EnMin= -1186.30829102309     IErMin= 1 ErrMin= 1.83D-04
 ErrMax= 1.83D-04  0.00D+00 EMaxC= 1.00D-01 BMatC= 6.02D-06 BMatP= 6.02D-06
 IDIUse=3 WtCom= 9.98D-01 WtEn= 1.83D-03
 Coeff-Com:  0.100D+01
 Coeff-En:   0.100D+01
 Coeff:      0.100D+01
 Gap=     0.094 Goal=   None    Shift=    0.000
 RMSDP=1.50D-06 MaxDP=1.20D-04 DE= 3.64D-05 OVMax= 3.61D-04

 Cycle  15  Pass 1  IDiag  1:
 RMSU=  2.24D-04    CP:  1.00D+00
 E= -1186.30829670043     Delta-E=       -0.000005677335 Rises=F Damp=F
 DIIS: error= 3.35D-06 at cycle   2 NSaved=   2.
 NSaved= 2 IEnMin= 2 EnMin= -1186.30829670043     IErMin= 2 ErrMin= 3.35D-06
 ErrMax= 3.35D-06  0.00D+00 EMaxC= 1.00D-01 BMatC= 7.70D-09 BMatP= 6.02D-06
 IDIUse=1 WtCom= 1.00D+00 WtEn= 0.00D+00
 Coeff-Com: -0.971D-02 0.101D+01
 Coeff:     -0.971D-02 0.101D+01
 Gap=     0.094 Goal=   None    Shift=    0.000
 RMSDP=4.76D-06 MaxDP=2.92D-04 DE=-5.68D-06 OVMax= 1.90D-04

 Cycle  16  Pass 1  IDiag  1:
 RMSU=  1.97D-06    CP:  1.00D+00  1.02D+00
 E= -1186.30829667521     Delta-E=        0.000000025219 Rises=F Damp=F
 DIIS: error= 6.09D-06 at cycle   3 NSaved=   3.
 NSaved= 3 IEnMin= 2 EnMin= -1186.30829670043     IErMin= 2 ErrMin= 3.35D-06
 ErrMax= 6.09D-06  0.00D+00 EMaxC= 1.00D-01 BMatC= 3.02D-08 BMatP= 7.70D-09
 IDIUse=1 WtCom= 1.00D+00 WtEn= 0.00D+00
 Coeff-Com: -0.768D-02 0.687D+00 0.320D+00
 Coeff:     -0.768D-02 0.687D+00 0.320D+00
 Gap=     0.094 Goal=   None    Shift=    0.000
 RMSDP=1.61D-06 MaxDP=3.19D-04 DE= 2.52D-08 OVMax= 1.40D-04

 Cycle  17  Pass 1  IDiag  1:
 RMSU=  1.22D-06    CP:  1.00D+00  1.02D+00  6.21D-01
 E= -1186.30829671064     Delta-E=       -0.000000035428 Rises=F Damp=F
 DIIS: error= 7.82D-07 at cycle   4 NSaved=   4.
 NSaved= 4 IEnMin= 4 EnMin= -1186.30829671064     IErMin= 4 ErrMin= 7.82D-07
 ErrMax= 7.82D-07  0.00D+00 EMaxC= 1.00D-01 BMatC= 4.95D-10 BMatP= 7.70D-09
 IDIUse=1 WtCom= 1.00D+00 WtEn= 0.00D+00
 Coeff-Com: -0.338D-02 0.295D+00 0.164D+00 0.544D+00
 Coeff:     -0.338D-02 0.295D+00 0.164D+00 0.544D+00
 Gap=     0.094 Goal=   None    Shift=    0.000
 RMSDP=1.97D-07 MaxDP=1.91D-05 DE=-3.54D-08 OVMax= 1.60D-05

 Cycle  18  Pass 1  IDiag  1:
 RMSU=  1.75D-07    CP:  1.00D+00  1.02D+00  6.29D-01  9.36D-01
 E= -1186.30829671102     Delta-E=       -0.000000000378 Rises=F Damp=F
 DIIS: error= 4.48D-07 at cycle   5 NSaved=   5.
 NSaved= 5 IEnMin= 5 EnMin= -1186.30829671102     IErMin= 5 ErrMin= 4.48D-07
 ErrMax= 4.48D-07  0.00D+00 EMaxC= 1.00D-01 BMatC= 1.41D-10 BMatP= 4.95D-10
 IDIUse=1 WtCom= 1.00D+00 WtEn= 0.00D+00
 Coeff-Com: -0.451D-03 0.350D-01 0.332D-01 0.360D+00 0.572D+00
 Coeff:     -0.451D-03 0.350D-01 0.332D-01 0.360D+00 0.572D+00
 Gap=     0.094 Goal=   None    Shift=    0.000
 RMSDP=8.59D-08 MaxDP=1.65D-05 DE=-3.78D-10 OVMax= 5.98D-06

 Cycle  19  Pass 1  IDiag  1:
 RMSU=  4.86D-08    CP:  1.00D+00  1.02D+00  6.39D-01  9.75D-01  8.74D-01
 E= -1186.30829671114     Delta-E=       -0.000000000125 Rises=F Damp=F
 DIIS: error= 1.72D-07 at cycle   6 NSaved=   6.
 NSaved= 6 IEnMin= 6 EnMin= -1186.30829671114     IErMin= 6 ErrMin= 1.72D-07
 ErrMax= 1.72D-07  0.00D+00 EMaxC= 1.00D-01 BMatC= 1.27D-11 BMatP= 1.41D-10
 IDIUse=1 WtCom= 1.00D+00 WtEn= 0.00D+00
 Coeff-Com:  0.491D-04-0.687D-02 0.370D-02 0.162D+00 0.333D+00 0.509D+00
 Coeff:      0.491D-04-0.687D-02 0.370D-02 0.162D+00 0.333D+00 0.509D+00
 Gap=     0.094 Goal=   None    Shift=    0.000
 RMSDP=2.43D-08 MaxDP=2.96D-06 DE=-1.25D-10 OVMax= 1.32D-06

 Cycle  20  Pass 1  IDiag  1:
 RMSU=  1.72D-08    CP:  1.00D+00  1.02D+00  6.41D-01  9.83D-01  8.45D-01
                    CP:  8.05D-01
 E= -1186.30829671116     Delta-E=       -0.000000000016 Rises=F Damp=F
 DIIS: error= 6.54D-08 at cycle   7 NSaved=   7.
 NSaved= 7 IEnMin= 7 EnMin= -1186.30829671116     IErMin= 7 ErrMin= 6.54D-08
 ErrMax= 6.54D-08  0.00D+00 EMaxC= 1.00D-01 BMatC= 1.21D-12 BMatP= 1.27D-11
 IDIUse=1 WtCom= 1.00D+00 WtEn= 0.00D+00
 Coeff-Com:  0.767D-04-0.783D-02-0.149D-02 0.610D-01 0.142D+00 0.293D+00
 Coeff-Com:  0.514D+00
 Coeff:      0.767D-04-0.783D-02-0.149D-02 0.610D-01 0.142D+00 0.293D+00
 Coeff:      0.514D+00
 Gap=     0.094 Goal=   None    Shift=    0.000
 RMSDP=7.96D-09 MaxDP=9.80D-07 DE=-1.64D-11 OVMax= 5.42D-07

 SCF Done:  E(RPBE1PBE) =  -1186.30829671     A.U. after   20 cycles
            NFock= 20  Conv=0.80D-08     -V/T= 2.0073
 KE= 1.177656898256D+03 PE=-7.182872229555D+03 EE= 2.625370567879D+03
 Leave Link  502 at Fri Jan 24 16:53:43 2025, MaxMem=  3221225472 cpu:            1103.0 elap:              46.1
 (Enter /software/gaussian/G16-C.01/avx2/g16/l601.exe)
 Copying SCF densities to generalized density rwf, IOpCl= 0 IROHF=0.

 **********************************************************************

            Population analysis using the SCF Density.

 **********************************************************************

 Orbital symmetries:
       Occupied  (A) (A) (A) (A) (A) (A) (A) (A) (A) (A) (A) (A)
                 (A) (A) (A) (A) (A) (A) (A) (A) (A) (A) (A) (A)
                 (A) (A) (A) (A) (A) (A) (A) (A) (A) (A) (A) (A)
                 (A) (A) (A) (A) (A) (A) (A) (A) (A) (A) (A) (A)
                 (A) (A) (A) (A) (A) (A) (A) (A) (A) (A) (A) (A)
                 (A) (A) (A) (A) (A) (A) (A) (A) (A) (A) (A) (A)
                 (A) (A) (A) (A) (A) (A) (A) (A) (A) (A) (A) (A)
                 (A) (A) (A) (A) (A) (A)
       Virtual   (A) (A) (A) (A) (A) (A) (A) (A) (A) (A) (A) (A)
                 (A) (A) (A) (A) (A) (A) (A) (A) (A) (A) (A) (A)
                 (A) (A) (A) (A) (A) (A) (A) (A) (A) (A) (A) (A)
                 (A) (A) (A) (A) (A) (A) (A) (A) (A) (A) (A) (A)
                 (A) (A) (A) (A) (A) (A) (A) (A) (A) (A) (A) (A)
                 (A) (A) (A) (A) (A) (A) (A) (A) (A) (A) (A) (A)
                 (A) (A) (A) (A) (A) (A) (A) (A) (A) (A) (A) (A)
                 (A) (A) (A) (A) (A) (A) (A) (A) (A) (A) (A) (A)
                 (A) (A) (A) (A) (A) (A) (A) (A) (A) (A) (A) (A)
                 (A) (A) (A) (A) (A) (A) (A) (A) (A) (A) (A) (A)
                 (A) (A) (A) (A) (A) (A) (A) (A) (A) (A) (A) (A)
                 (A) (A) (A) (A) (A) (A) (A) (A) (A) (A) (A) (A)
                 (A) (A) (A) (A) (A) (A) (A) (A) (A) (A) (A) (A)
                 (A) (A) (A) (A) (A) (A) (A) (A) (A) (A) (A) (A)
                 (A) (A) (A) (A) (A) (A) (A) (A) (A) (A) (A) (A)
                 (A) (A) (A) (A) (A) (A) (A) (A) (A) (A) (A) (A)
                 (A) (A) (A) (A) (A) (A) (A) (A) (A) (A) (A) (A)
                 (A) (A) (A) (A) (A) (A) (A) (A) (A) (A) (A) (A)
                 (A) (A) (A) (A) (A) (A) (A) (A) (A) (A) (A) (A)
                 (A) (A) (A) (A) (A) (A) (A) (A) (A) (A) (A) (A)
                 (A) (A) (A) (A) (A) (A) (A) (A) (A) (A) (A) (A)
                 (A) (A) (A) (A) (A) (A) (A) (A) (A) (A) (A) (A)
                 (A) (A) (A) (A) (A) (A) (A) (A) (A) (A) (A) (A)
                 (A) (A) (A) (A) (A) (A) (A) (A) (A) (A) (A) (A)
                 (A) (A) (A) (A) (A) (A) (A) (A) (A) (A) (A) (A)
                 (A) (A) (A) (A) (A) (A) (A) (A) (A) (A) (A) (A)
                 (A) (A) (A) (A) (A) (A) (A) (A) (A) (A) (A) (A)
                 (A) (A) (A) (A) (A) (A) (A) (A) (A) (A) (A) (A)
                 (A) (A) (A) (A) (A) (A) (A) (A) (A) (A) (A) (A)
                 (A) (A)
 The electronic state is 1-A.
 Alpha  occ. eigenvalues --  -24.65786 -24.64782 -24.64478 -19.17319 -14.26248
 Alpha  occ. eigenvalues --  -10.20453 -10.18626 -10.17966 -10.17701 -10.17240
 Alpha  occ. eigenvalues --  -10.15764 -10.13456 -10.13428 -10.11347 -10.11105
 Alpha  occ. eigenvalues --  -10.10949 -10.10663 -10.10598 -10.10589 -10.10284
 Alpha  occ. eigenvalues --  -10.10004 -10.09761 -10.09578 -10.07877  -6.62019
 Alpha  occ. eigenvalues --   -1.11123  -1.09540  -1.09196  -1.05700  -0.84031
 Alpha  occ. eigenvalues --   -0.77556  -0.74384  -0.74293  -0.67815  -0.66901
 Alpha  occ. eigenvalues --   -0.66286  -0.63430  -0.62425  -0.59048  -0.58827
 Alpha  occ. eigenvalues --   -0.56012  -0.55428  -0.51454  -0.50341  -0.47953
 Alpha  occ. eigenvalues --   -0.46009  -0.45294  -0.44810  -0.44047  -0.42333
 Alpha  occ. eigenvalues --   -0.40991  -0.39799  -0.39279  -0.37868  -0.37141
 Alpha  occ. eigenvalues --   -0.36659  -0.36266  -0.34280  -0.33093  -0.33034
 Alpha  occ. eigenvalues --   -0.32965  -0.32917  -0.32698  -0.32406  -0.31949
 Alpha  occ. eigenvalues --   -0.31428  -0.30311  -0.29883  -0.29458  -0.29308
 Alpha  occ. eigenvalues --   -0.28325  -0.28249  -0.28216  -0.27345  -0.25415
 Alpha  occ. eigenvalues --   -0.25025  -0.24110  -0.22861  -0.22440  -0.22154
 Alpha  occ. eigenvalues --   -0.21516  -0.21220  -0.17504  -0.17297  -0.14266
 Alpha  occ. eigenvalues --   -0.12809  -0.11857  -0.11303  -0.11047   0.02455
 Alpha virt. eigenvalues --    0.11858   0.12466   0.12917   0.13732   0.14250
 Alpha virt. eigenvalues --    0.17058   0.17381   0.19191   0.19766   0.20046
 Alpha virt. eigenvalues --    0.21060   0.21309   0.22212   0.22627   0.23576
 Alpha virt. eigenvalues --    0.24175   0.24603   0.24982   0.25447   0.25628
 Alpha virt. eigenvalues --    0.26219   0.26950   0.28118   0.28490   0.28672
 Alpha virt. eigenvalues --    0.30083   0.31047   0.32270   0.33141   0.33766
 Alpha virt. eigenvalues --    0.34722   0.35774   0.35942   0.37469   0.38444
 Alpha virt. eigenvalues --    0.39967   0.40569   0.40873   0.42801   0.43232
 Alpha virt. eigenvalues --    0.44415   0.45003   0.46146   0.47265   0.48178
 Alpha virt. eigenvalues --    0.48858   0.49426   0.50276   0.50493   0.51339
 Alpha virt. eigenvalues --    0.52628   0.53014   0.54030   0.55097   0.55459
 Alpha virt. eigenvalues --    0.55964   0.56254   0.56651   0.56950   0.57882
 Alpha virt. eigenvalues --    0.58540   0.59332   0.59956   0.60221   0.60736
 Alpha virt. eigenvalues --    0.61898   0.62380   0.62998   0.63134   0.64325
 Alpha virt. eigenvalues --    0.64945   0.65953   0.66331   0.67211   0.67608
 Alpha virt. eigenvalues --    0.68016   0.68663   0.69353   0.70237   0.71507
 Alpha virt. eigenvalues --    0.71770   0.72258   0.73009   0.73546   0.73891
 Alpha virt. eigenvalues --    0.74789   0.75219   0.75672   0.76070   0.76423
 Alpha virt. eigenvalues --    0.76924   0.77373   0.77709   0.77812   0.78426
 Alpha virt. eigenvalues --    0.78796   0.78883   0.79874   0.80371   0.80928
 Alpha virt. eigenvalues --    0.81084   0.81509   0.82691   0.82828   0.83447
 Alpha virt. eigenvalues --    0.84336   0.84602   0.84872   0.85915   0.86152
 Alpha virt. eigenvalues --    0.86891   0.87147   0.87970   0.88256   0.89449
 Alpha virt. eigenvalues --    0.89684   0.90392   0.91199   0.91939   0.92137
 Alpha virt. eigenvalues --    0.92343   0.93349   0.94019   0.94247   0.96291
 Alpha virt. eigenvalues --    0.96491   0.97189   0.97544   1.00310   1.02086
 Alpha virt. eigenvalues --    1.04750   1.05600   1.06903   1.07496   1.08584
 Alpha virt. eigenvalues --    1.09826   1.11344   1.13369   1.14976   1.15527
 Alpha virt. eigenvalues --    1.16702   1.16823   1.19350   1.20511   1.23005
 Alpha virt. eigenvalues --    1.23239   1.27522   1.28580   1.29304   1.30485
 Alpha virt. eigenvalues --    1.30797   1.31426   1.32325   1.33707   1.35590
 Alpha virt. eigenvalues --    1.36006   1.37001   1.37781   1.38202   1.39106
 Alpha virt. eigenvalues --    1.39912   1.40853   1.42319   1.43573   1.44102
 Alpha virt. eigenvalues --    1.44924   1.45582   1.46235   1.47589   1.48941
 Alpha virt. eigenvalues --    1.49476   1.51569   1.53542   1.56873   1.58077
 Alpha virt. eigenvalues --    1.58846   1.60160   1.60445   1.61194   1.62595
 Alpha virt. eigenvalues --    1.63474   1.63581   1.65006   1.65934   1.66635
 Alpha virt. eigenvalues --    1.67148   1.68420   1.68649   1.69231   1.70147
 Alpha virt. eigenvalues --    1.70296   1.71622   1.72345   1.73748   1.75284
 Alpha virt. eigenvalues --    1.76354   1.78274   1.78722   1.80114   1.81843
 Alpha virt. eigenvalues --    1.82338   1.83153   1.84041   1.84385   1.85097
 Alpha virt. eigenvalues --    1.86059   1.86296   1.86510   1.86958   1.87417
 Alpha virt. eigenvalues --    1.87830   1.88320   1.89356   1.89581   1.90733
 Alpha virt. eigenvalues --    1.91563   1.93164   1.94059   1.94793   1.95332
 Alpha virt. eigenvalues --    1.95875   1.96535   1.97116   1.97635   1.97780
 Alpha virt. eigenvalues --    1.99113   1.99710   2.00476   2.01686   2.03105
 Alpha virt. eigenvalues --    2.04560   2.05772   2.06657   2.07401   2.08799
 Alpha virt. eigenvalues --    2.09160   2.10324   2.10731   2.13033   2.13404
 Alpha virt. eigenvalues --    2.15463   2.16384   2.17256   2.17983   2.18857
 Alpha virt. eigenvalues --    2.20369   2.21043   2.21092   2.23724   2.24206
 Alpha virt. eigenvalues --    2.24720   2.25757   2.26420   2.27112   2.29685
[...]
    11  C   -0.000000  -0.000503  -0.000032   0.001470  -0.000037  -0.000018
    12  C    0.000000   0.000460  -0.000011  -0.018753   0.000349   0.000561
    13  C    0.017002  -0.130353  -0.095408  -0.009530  -0.001266   0.000010
    14  C   -0.002087   0.120456  -0.000317   0.009521   0.000039  -0.000069
    15  F    0.000000   0.005765  -0.000037  -0.003195  -0.000206   0.000071
    16  C    0.010630  -0.110247   0.000696  -0.000808  -0.000120  -0.000024
    17  C   -0.077275  -0.028975   0.007888  -0.000324   0.000004   0.000005
    18  C    0.338506   0.124427  -0.043874  -0.000262  -0.000001  -0.000004
    19  F    9.027908  -0.103175  -0.000306  -0.000001  -0.000001  -0.000000
    20  C   -0.103175   5.639998   0.281958  -0.002729   0.000709   0.000096
    21  F   -0.000306   0.281958   9.014319  -0.000139  -0.000086  -0.000002
    22  N   -0.000001  -0.002729  -0.000139   6.569544   0.611952  -0.052919
    23  C   -0.000001   0.000709  -0.000086   0.611952   4.893113   0.275334
    24  C   -0.000000   0.000096  -0.000002  -0.052919   0.275334   5.012443
    25  O   -0.000000  -0.000169   0.000003  -0.100235   0.369644  -0.050657
    26  H   -0.000000  -0.000069  -0.000064   0.008281   0.002994  -0.000690
    27  H    0.000013   0.003538  -0.001722  -0.000015   0.000002  -0.000000
    28  H    0.000000  -0.000519   0.000086   0.000001  -0.000000   0.000000
    29  H    0.000012   0.000039   0.000033   0.000011  -0.000003  -0.000000
    30  H   -0.000000   0.000001   0.000000   0.000000  -0.000000  -0.000000
    31  H   -0.000000   0.000000  -0.000000   0.000000  -0.000000  -0.000000
    32  H    0.000000  -0.000000   0.000000  -0.000000   0.000000   0.000000
    33  H   -0.000000  -0.000000  -0.000000   0.000000  -0.000000  -0.000000
    34  H   -0.000000  -0.000003  -0.000000   0.000011  -0.000003   0.000000
    35  H   -0.000000   0.000001   0.000000   0.000991  -0.000320   0.000021
    36  H   -0.000000  -0.000049   0.000001  -0.001485   0.001424   0.000040
    37  H   -0.000000  -0.000205   0.000002   0.010603   0.001601  -0.000443
    38  H   -0.000090  -0.007735   0.000028  -0.000027  -0.000002  -0.000000
    39  H    0.002793   0.026138  -0.000157  -0.000004  -0.000000   0.000000
    40  H    0.000000   0.000002   0.000000  -0.000947  -0.038605   0.392056
    41  H   -0.000000  -0.000017  -0.000000   0.012202  -0.056086   0.420532
    42  H    0.000000  -0.000008   0.000000   0.000029  -0.043766   0.396800
    43  H    0.000074  -0.047427  -0.013816   0.004024  -0.000323   0.000044
              25         26         27         28         29         30
     1  C    0.328958   0.384960   0.000007   0.000005  -0.000045   0.000002
     2  C   -0.108766  -0.015084   0.000573  -0.000047  -0.000386   0.000052
     3  B    0.008886   0.002655   0.002686  -0.005922  -0.014229  -0.001580
     4  C    0.000800  -0.000483  -0.008759   0.015935  -0.014253   0.029609
     5  C    0.000055   0.000080  -0.025400  -0.064491  -0.016910  -0.070879
     6  C   -0.000004  -0.000038   0.401363   0.374850   0.403239  -0.023992
     7  C   -0.000000  -0.000003  -0.003992   0.001292  -0.004293   0.440792
     8  C    0.000000   0.000001  -0.000149  -0.000733  -0.000383  -0.104308
     9  C    0.000000  -0.000000   0.000008  -0.000258   0.000074  -0.016783
    10  C   -0.000026  -0.000026   0.000359   0.000823  -0.000740   0.021251
    11  C   -0.001028  -0.000192  -0.000010  -0.001288   0.001577  -0.005452
    12  C    0.000786   0.000904   0.000040   0.000041   0.000133   0.000336
    13  C   -0.000585   0.000259  -0.007557   0.001664   0.004631   0.000114
    14  C   -0.000009   0.000090   0.000789   0.000453   0.000879   0.000093
    15  F   -0.000001  -0.000002  -0.000115  -0.000009  -0.000018  -0.000004
    16  C    0.000001   0.000000   0.000975  -0.000007  -0.000102   0.000000
    17  C   -0.000001   0.000002  -0.000090  -0.000024   0.000076   0.000000
    18  C    0.000005  -0.000009   0.006395  -0.000029  -0.000668  -0.000001
    19  F   -0.000000  -0.000000   0.000013   0.000000   0.000012  -0.000000
    20  C   -0.000169  -0.000069   0.003538  -0.000519   0.000039   0.000001
    21  F    0.000003  -0.000064  -0.001722   0.000086   0.000033   0.000000
    22  N   -0.100235   0.008281  -0.000015   0.000001   0.000011   0.000000
    23  C    0.369644   0.002994   0.000002  -0.000000  -0.000003  -0.000000
    24  C   -0.050657  -0.000690  -0.000000   0.000000  -0.000000  -0.000000
    25  O    7.798385  -0.030585   0.000000  -0.000000   0.000001   0.000000
    26  H   -0.030585   0.533445  -0.000006   0.000000   0.000019   0.000000
    27  H    0.000000  -0.000006   0.576589  -0.027931  -0.035552   0.000646
    28  H   -0.000000   0.000000  -0.027931   0.634581  -0.024631   0.010160
    29  H    0.000001   0.000019  -0.035552  -0.024631   0.565169   0.000437
    30  H    0.000000   0.000000   0.000646   0.010160   0.000437   0.665717
    31  H   -0.000000   0.000000   0.000013  -0.000002  -0.000011   0.005100
    32  H    0.000000   0.000000  -0.000004   0.000021   0.000001   0.001230
    33  H   -0.000000   0.000000  -0.000002   0.000003   0.000000   0.000089
    34  H   -0.000000  -0.000000  -0.000004  -0.000001  -0.000009  -0.000440
    35  H   -0.000016   0.000010  -0.000002  -0.000001   0.000000  -0.000002
    36  H    0.000768  -0.000106   0.000014  -0.000001  -0.000039  -0.000009
    37  H    0.000295  -0.000255  -0.000031   0.000001   0.000028  -0.000005
    38  H    0.000000   0.000000   0.000000   0.000000   0.000001  -0.000000
    39  H   -0.000000   0.000000  -0.000027  -0.000000  -0.000000   0.000000
    40  H    0.001455  -0.000004  -0.000000   0.000000   0.000000   0.000000
    41  H    0.004664  -0.000020   0.000000   0.000000   0.000000  -0.000000
    42  H    0.001397  -0.000050   0.000000  -0.000000  -0.000000  -0.000000
    43  H    0.000372   0.002067  -0.002953   0.002171   0.002432   0.000075
              31         32         33         34         35         36
     1  C    0.000000   0.000000  -0.000000   0.000027   0.000779  -0.002921
     2  C    0.000000   0.000001  -0.000001   0.000095   0.001872  -0.007481
     3  B    0.000060  -0.000173   0.000058  -0.002057  -0.000858  -0.009570
     4  C    0.000890  -0.000211   0.001042   0.027804   0.012923  -0.004401
     5  C   -0.001133   0.001353  -0.001184  -0.005866  -0.001563   0.001459
     6  C   -0.000124  -0.000005   0.000040   0.000280   0.000039   0.000103
     7  C    0.008830  -0.000513   0.001287   0.022506   0.000818  -0.000523
     8  C   -0.057888  -0.036189  -0.058393  -0.102448   0.000887  -0.001482
     9  C    0.410335   0.375650   0.410835  -0.017067  -0.000260   0.000098
    10  C   -0.000075  -0.001202   0.007694   0.436003  -0.001026  -0.001271
    11  C   -0.001075   0.001071  -0.000952  -0.066738  -0.065593  -0.015908
    12  C    0.000035   0.000056  -0.000199  -0.023107   0.372763   0.387432
    13  C   -0.000000  -0.000000   0.000001   0.000077   0.000116  -0.001145
    14  C   -0.000000   0.000003  -0.000000   0.000045   0.000042   0.000282
    15  F    0.000000  -0.000000   0.000000   0.000005  -0.000001   0.000306
    16  C    0.000000  -0.000000  -0.000000   0.000000   0.000004   0.000033
    17  C   -0.000000  -0.000000   0.000000  -0.000000  -0.000000  -0.000003
    18  C    0.000000   0.000000  -0.000000  -0.000000   0.000000   0.000002
    19  F   -0.000000   0.000000  -0.000000  -0.000000  -0.000000  -0.000000
    20  C    0.000000  -0.000000  -0.000000  -0.000003   0.000001  -0.000049
    21  F   -0.000000   0.000000  -0.000000  -0.000000   0.000000   0.000001
    22  N    0.000000  -0.000000   0.000000   0.000011   0.000991  -0.001485
    23  C   -0.000000   0.000000  -0.000000  -0.000003  -0.000320   0.001424
    24  C   -0.000000   0.000000  -0.000000   0.000000   0.000021   0.000040
    25  O   -0.000000   0.000000  -0.000000  -0.000000  -0.000016   0.000768
    26  H    0.000000   0.000000   0.000000  -0.000000   0.000010  -0.000106
    27  H    0.000013  -0.000004  -0.000002  -0.000004  -0.000002   0.000014
    28  H   -0.000002   0.000021   0.000003  -0.000001  -0.000001  -0.000001
    29  H   -0.000011   0.000001   0.000000  -0.000009   0.000000  -0.000039
    30  H    0.005100   0.001230   0.000089  -0.000440  -0.000002  -0.000009
    31  H    0.583160  -0.036439  -0.022143   0.000108   0.000003   0.000000
    32  H   -0.036439   0.617994  -0.035232   0.001081   0.000001   0.000002
    33  H   -0.022143  -0.035232   0.580806   0.005387   0.000043  -0.000018
    34  H    0.000108   0.001081   0.005387   0.664373   0.009776   0.001059
    35  H    0.000003   0.000001   0.000043   0.009776   0.641704  -0.033939
    36  H    0.000000   0.000002  -0.000018   0.001059  -0.033939   0.605237
    37  H   -0.000002   0.000000   0.000007   0.000587  -0.023273  -0.028546
    38  H   -0.000000   0.000000  -0.000000  -0.000000  -0.000000   0.000001
    39  H   -0.000000  -0.000000   0.000000   0.000000   0.000000   0.000000
    40  H   -0.000000   0.000000   0.000000   0.000000  -0.000005   0.000070
    41  H    0.000000  -0.000000   0.000000   0.000000   0.000003  -0.000002
    42  H    0.000000  -0.000000  -0.000000  -0.000000  -0.000000  -0.000004
    43  H   -0.000001   0.000001  -0.000000   0.000036   0.000017   0.000544
              37         38         39         40         41         42
     1  C   -0.002685  -0.000006   0.000000   0.002722  -0.000616   0.002633
     2  C   -0.006333   0.000002  -0.000003  -0.001763   0.000005  -0.001807
     3  B   -0.009698  -0.001579   0.000849   0.000390   0.000621  -0.000160
     4  C   -0.004611   0.000080  -0.000010  -0.000036  -0.000002   0.000012
     5  C    0.000268   0.000110  -0.000005  -0.000001  -0.000001   0.000000
     6  C    0.000089   0.000000  -0.000010  -0.000000   0.000000   0.000000
     7  C    0.000208  -0.000013   0.000000   0.000000  -0.000000  -0.000000
     8  C   -0.000186  -0.000000  -0.000000  -0.000000   0.000000   0.000000
     9  C    0.000018  -0.000000  -0.000000  -0.000000   0.000000   0.000000
    10  C   -0.004436  -0.000008   0.000000   0.000002  -0.000000  -0.000000
    11  C   -0.006875   0.000054   0.000002   0.000003   0.000026   0.000003
    12  C    0.386105   0.000014  -0.000000   0.000060  -0.000264  -0.000038
    13  C    0.002348   0.029613  -0.008796  -0.000015  -0.000001   0.000034
    14  C   -0.000950  -0.062364   0.014883  -0.000002   0.000098  -0.000007
    15  F    0.008384   0.007367  -0.000189   0.000000  -0.000018  -0.000000
    16  C   -0.000630   0.411877  -0.063750   0.000000  -0.000001  -0.000001
    17  C    0.000019  -0.068034   0.421455   0.000000  -0.000002  -0.000001
    18  C   -0.000033   0.014367  -0.066298  -0.000000  -0.000002   0.000000
    19  F   -0.000000  -0.000090   0.002793   0.000000  -0.000000   0.000000
    20  C   -0.000205  -0.007735   0.026138   0.000002  -0.000017  -0.000008
    21  F    0.000002   0.000028  -0.000157   0.000000  -0.000000   0.000000
    22  N    0.010603  -0.000027  -0.000004  -0.000947   0.012202   0.000029
    23  C    0.001601  -0.000002  -0.000000  -0.038605  -0.056086  -0.043766
    24  C   -0.000443  -0.000000   0.000000   0.392056   0.420532   0.396800
    25  O    0.000295   0.000000  -0.000000   0.001455   0.004664   0.001397
    26  H   -0.000255   0.000000   0.000000  -0.000004  -0.000020  -0.000050
    27  H   -0.000031   0.000000  -0.000027  -0.000000   0.000000   0.000000
    28  H    0.000001   0.000000  -0.000000   0.000000   0.000000  -0.000000
    29  H    0.000028   0.000001  -0.000000   0.000000   0.000000  -0.000000
    30  H   -0.000005  -0.000000   0.000000   0.000000  -0.000000  -0.000000
    31  H   -0.000002  -0.000000  -0.000000  -0.000000   0.000000   0.000000
    32  H    0.000000   0.000000  -0.000000   0.000000  -0.000000  -0.000000
    33  H    0.000007  -0.000000   0.000000   0.000000   0.000000  -0.000000
    34  H    0.000587  -0.000000   0.000000   0.000000   0.000000  -0.000000
    35  H   -0.023273  -0.000000   0.000000  -0.000005   0.000003  -0.000000
    36  H   -0.028546   0.000001   0.000000   0.000070  -0.000002  -0.000004
    37  H    0.535795  -0.000031   0.000001  -0.000122   0.000409   0.000056
    38  H   -0.000031   0.597618  -0.010961  -0.000000  -0.000001   0.000000
    39  H    0.000001  -0.010961   0.590181  -0.000000  -0.000000   0.000000
    40  H   -0.000122  -0.000000  -0.000000   0.585149  -0.019533  -0.039544
    41  H    0.000409  -0.000001  -0.000000  -0.019533   0.512993  -0.019279
    42  H    0.000056   0.000000   0.000000  -0.039544  -0.019279   0.584831
    43  H   -0.000081   0.000032  -0.000009  -0.000001   0.000001  -0.000004
              43
     1  C   -0.004366
     2  C   -0.029382
     3  B    0.378528
     4  C   -0.011232
     5  C   -0.026511
     6  C   -0.013286
     7  C    0.003054
     8  C   -0.000904
     9  C   -0.000013
    10  C    0.000138
    11  C    0.006276
    12  C    0.000954
    13  C    0.001586
    14  C    0.020592
    15  F   -0.000125
    16  C   -0.000109
    17  C    0.000213
    18  C   -0.001932
    19  F    0.000074
    20  C   -0.047427
    21  F   -0.013816
    22  N    0.004024
    23  C   -0.000323
    24  C    0.000044
    25  O    0.000372
    26  H    0.002067
    27  H   -0.002953
    28  H    0.002171
    29  H    0.002432
    30  H    0.000075
    31  H   -0.000001
    32  H    0.000001
    33  H   -0.000000
    34  H    0.000036
    35  H    0.000017
    36  H    0.000544
    37  H   -0.000081
    38  H    0.000032
    39  H   -0.000009
    40  H   -0.000001
    41  H    0.000001
    42  H   -0.000004
    43  H    0.749650
 Mulliken charges:
               1
     1  C   -0.087750
     2  C    0.011982
     3  B   -0.237960
     4  C   -0.084697
     5  C    0.230545
     6  C   -0.347918
     7  C   -0.427907
     8  C    0.308725
     9  C   -0.419414
    10  C   -0.437263
    11  C    0.189017
    12  C   -0.329901
    13  C   -0.191954
    14  C    0.356273
    15  F   -0.205720
    16  C   -0.260362
    17  C   -0.189346
    18  C    0.169842
    19  F   -0.211605
    20  C    0.264595
    21  F   -0.196411
    22  N   -0.262764
    23  C    0.229811
    24  C   -0.405574
    25  O   -0.224394
    26  H    0.111917
    27  H    0.120311
    28  H    0.083805
    29  H    0.133478
    30  H    0.047750
    31  H    0.110359
    32  H    0.111503
    33  H    0.110831
    34  H    0.048485
    35  H    0.084046
    36  H    0.110029
    37  H    0.142608
    38  H    0.089687
    39  H    0.093917
    40  H    0.118667
    41  H    0.144290
    42  H    0.118872
    43  H   -0.020405
 Sum of Mulliken charges =  -1.00000
 Mulliken charges with hydrogens summed into heavy atoms:
               1
     1  C    0.024168
     2  C    0.011982
     3  B   -0.258365
     4  C   -0.084697
     5  C    0.230545
     6  C   -0.010324
     7  C   -0.380157
     8  C    0.308725
     9  C   -0.086722
    10  C   -0.388778
    11  C    0.189017
    12  C    0.006782
    13  C   -0.191954
    14  C    0.356273
    15  F   -0.205720
    16  C   -0.170675
    17  C   -0.095428
    18  C    0.169842
    19  F   -0.211605
    20  C    0.264595
    21  F   -0.196411
    22  N   -0.262764
    23  C    0.229811
    24  C   -0.023745
    25  O   -0.224394
 Electronic spatial extent (au):  <R**2>=           8529.8405
 Charge=             -1.0000 electrons
 Dipole moment (field-independent basis, Debye):
    X=             -0.3866    Y=              1.0595    Z=              2.1023  Tot=              2.3858
 Quadrupole moment (field-independent basis, Debye-Ang):
   XX=           -176.4057   YY=           -163.0952   ZZ=           -155.9203
   XY=             -5.6331   XZ=             -4.6656   YZ=             -1.8646
 Traceless Quadrupole moment (field-independent basis, Debye-Ang):
   XX=            -11.2653   YY=              2.0452   ZZ=              9.2201
   XY=             -5.6331   XZ=             -4.6656   YZ=             -1.8646
 Octapole moment (field-independent basis, Debye-Ang**2):
  XXX=            -96.1567  YYY=             -1.1966  ZZZ=              6.7919  XYY=              4.7749
  XXY=             24.8435  XXZ=             17.3616  XZZ=            -22.0145  YZZ=             -5.8508
  YYZ=             23.4275  XYZ=              9.0189
 Hexadecapole moment (field-independent basis, Debye-Ang**3):
 XXXX=          -6453.6341 YYYY=          -4355.8202 ZZZZ=          -1296.9692 XXXY=            -10.6705
 XXXZ=             23.5377 YYYX=              4.8191 YYYZ=             59.8319 ZZZX=             27.5855
 ZZZY=            -25.4762 XXYY=          -1783.7532 XXZZ=          -1257.8671 YYZZ=           -931.7271
 XXYZ=             -3.4790 YYXZ=            -57.2099 ZZXY=             43.9453
 N-N= 2.193726513468D+03 E-N=-7.193132883708D+03  KE= 1.182827876719D+03
 No NMR shielding tensors so no spin-rotation constants.
 Leave Link  601 at Fri Jan 24 17:31:55 2025, MaxMem=  3221225472 cpu:              13.6 elap:               0.7
 (Enter /software/gaussian/G16-C.01/avx2/g16/l9999.exe)
 Unable to Open any file for archive entry.
 1\1\GINC-NODE32\SP\RPBE1PBE\def2TZVP\C19H18B1F3N1O1(1-)\LAPLAZA\24-Jan
 -2025\0\\#p def2tzvp pbe1pbe integral=ultrafinegrid geom=allcheck gues
 s=read em=gd3bj\\with_hydride\\-1,1\C,0,-1.0756091413,3.0823753993,0.5
 632253287\C,0,-1.074983524,1.7200178928,0.5619160875\B,0,-0.5169471443
 ,0.7311400736,-0.5898259966\C,0,1.0164104073,0.1577345435,-0.491745122
 \C,0,1.5782826801,-0.4157419753,-1.6631221932\C,0,0.7758182984,-0.5428
 527058,-2.9287743437\C,0,2.8944586613,-0.8917106937,-1.6831784007\C,0,
 3.7165347096,-0.8353756309,-0.5593336173\C,0,5.1162351083,-1.383342929
 9,-0.5817625032\C,0,3.1686918956,-0.2834289984,0.5969613767\C,0,1.8547
 450194,0.2002866748,0.6494104658\C,0,1.3809188277,0.7486715639,1.96808
 91524\C,0,-1.599129298,-0.4915804591,-0.7309158207\C,0,-1.6390902706,-
 1.5715558595,0.1580525972\F,0,-0.7355022785,-1.6332739791,1.1432588973
 \C,0,-2.5588900723,-2.6120837181,0.0928026529\C,0,-3.5241224887,-2.601
 5123041,-0.9141164885\C,0,-3.5299710547,-1.5500510683,-1.814244396\F,0
 ,-4.4446736575,-1.5072525014,-2.7958833423\C,0,-2.5867342063,-0.523554
 5582,-1.7123978908\F,0,-2.674037699,0.448144487,-2.6265128706\N,0,-1.7
 37088875,1.3343562911,1.7389735991\C,0,-2.0610439955,2.4253717463,2.34
 80946288\C,0,-2.7762025365,2.577335614,3.6388308\O,0,-1.6909955679,3.5
 462420554,1.6982910662\H,0,-0.7091201169,3.8327343522,-0.1312259485\H,
 0,-0.0633289316,-1.2453062339,-2.8002402773\H,0,1.3987807479,-0.905986
 111,-3.7608599979\H,0,0.3169433143,0.4168377956,-3.2095283253\H,0,3.28
 74885117,-1.3208251107,-2.6127522828\H,0,5.5736814585,-1.2841443514,-1
 .5790405934\H,0,5.1386548785,-2.4571104306,-0.3224761797\H,0,5.7652886
 765,-0.8640771059,0.1409697726\H,0,3.7842640927,-0.2292631198,1.502961
 6753\H,0,2.1280587198,0.5654391531,2.7566474785\H,0,1.1997225231,1.833
 6497793,1.9141861149\H,0,0.4273219438,0.2938614675,2.2686828147\H,0,-2
 .5116732543,-3.4143532397,0.8314361355\H,0,-4.270648846,-3.39216565,-1
 .0106126931\H,0,-2.1599415916,3.1114809124,4.3802291546\H,0,-3.0110044
 838,1.5775670739,4.0234605247\H,0,-3.7129858628,3.1450148991,3.5165123
 277\H,0,-0.5626957776,1.4017228898,-1.6241511476\\Version=ES64L-G16Rev
 C.01\State=1-A\HF=-1188.4484361\RMSD=3.438e-09\Dipole=-0.1455397,-0.31
 25723,0.8730058\Quadrupole=-8.7931166,5.6839853,3.1091312,1.3552007,-5
 .1028925,-1.9226911\PG=C01 [X(C19H18B1F3N1O1)]\\@
 The archive entry for this job was punched.


 THERE IS NO SUBJECT, HOWEVER COMPLEX,
 WHICH, IF STUDIED WITH PATIENCE AND INTELLIGIENCE
 WILL NOT BECOME
 MORE COMPLEX
                        QUOTED BY D. GORDON ROHMAN
 Job cpu time:       0 days  2 hours 51 minutes  3.3 seconds.
 Elapsed time:       0 days  0 hours  7 minutes  8.9 seconds.
 File lengths (MBytes):  RWF=    406 Int=      0 D2E=      0 Chk=     56 Scr=      1
 Normal termination of Gaussian 16 at Fri Jan 24 17:31:55 2025.
