 Entering Gaussian System, Link 0=g16
 Input=neutral.com
 Output=neutral.log
 Initial command:
 /software/gaussian/G16-C.01/avx2/g16/l1.exe "/scratch/laplaza/9953171.slurm/Gau-313311.inp" -scrdir="/scratch/laplaza/9953171.slurm/"
 Entering Link 1 = /software/gaussian/G16-C.01/avx2/g16/l1.exe PID=    313312.
  
 Copyright (c) 1988-2019, Gaussian, Inc.  All Rights Reserved.
  
 This is part of the Gaussian(R) 16 program.  It is based on
 the Gaussian(R) 09 system (copyright 2009, Gaussian, Inc.),
 the Gaussian(R) 03 system (copyright 2003, Gaussian, Inc.),
 the Gaussian(R) 98 system (copyright 1998, Gaussian, Inc.),
 the Gaussian(R) 94 system (copyright 1995, Gaussian, Inc.),
 the Gaussian 92(TM) system (copyright 1992, Gaussian, Inc.),
 the Gaussian 90(TM) system (copyright 1990, Gaussian, Inc.),
 the Gaussian 88(TM) system (copyright 1988, Gaussian, Inc.),
 the Gaussian 86(TM) system (copyright 1986, Carnegie Mellon
 University), and the Gaussian 82(TM) system (copyright 1983,
 Carnegie Mellon University). Gaussian is a federally registered
 trademark of Gaussian, Inc.
  
 This software contains proprietary and confidential information,
 including trade secrets, belonging to Gaussian, Inc.
  
 This software is provided under written license and may be
 used, copied, transmitted, or stored only in accord with that
 written license.
  
 The following legend is applicable only to US Government
 contracts under FAR:
  
                    RESTRICTED RIGHTS LEGEND
  
 Use, reproduction and disclosure by the US Government is
 subject to restrictions as set forth in subparagraphs (a)
 and (c) of the Commercial Computer Software - Restricted
 Rights clause in FAR 52.227-19.
  
 Gaussian, Inc.
 340 Quinnipiac St., Bldg. 40, Wallingford CT 06492
  
  
 ---------------------------------------------------------------
 Warning -- This program may not be used in any manner that
 competes with the business of Gaussian, Inc. or will provide
 assistance to any competitor of Gaussian, Inc.  The licensee
 of this program is prohibited from giving any competitor of
 Gaussian, Inc. access to this program.  By using this program,
 the user acknowledges that Gaussian, Inc. is engaged in the
 business of creating and licensing software in the field of
 computational chemistry and represents and warrants to the
 licensee that it is not a competitor of Gaussian, Inc. and that
 it will not use this program in any manner prohibited above.
 ---------------------------------------------------------------
  

 Cite this work as:
 Gaussian 16, Revision C.01,
 M. J. Frisch, G. W. Trucks, H. B. Schlegel, G. E. Scuseria, 
 M. A. Robb, J. R. Cheeseman, G. Scalmani, V. Barone, 
 G. A. Petersson, H. Nakatsuji, X. Li, M. Caricato, A. V. Marenich, 
 J. Bloino, B. G. Janesko, R. Gomperts, B. Mennucci, H. P. Hratchian, 
 J. V. Ortiz, A. F. Izmaylov, J. L. Sonnenberg, D. Williams-Young, 
 F. Ding, F. Lipparini, F. Egidi, J. Goings, B. Peng, A. Petrone, 
 T. Henderson, D. Ranasinghe, V. G. Zakrzewski, J. Gao, N. Rega, 
 G. Zheng, W. Liang, M. Hada, M. Ehara, K. Toyota, R. Fukuda, 
 J. Hasegawa, M. Ishida, T. Nakajima, Y. Honda, O. Kitao, H. Nakai, 
 T. Vreven, K. Throssell, J. A. Montgomery, Jr., J. E. Peralta, 
 F. Ogliaro, M. J. Bearpark, J. J. Heyd, E. N. Brothers, K. N. Kudin, 
 V. N. Staroverov, T. A. Keith, R. Kobayashi, J. Normand, 
 K. Raghavachari, A. P. Rendell, J. C. Burant, S. S. Iyengar, 
 J. Tomasi, M. Cossi, J. M. Millam, M. Klene, C. Adamo, R. Cammi, 
 J. W. Ochterski, R. L. Martin, K. Morokuma, O. Farkas, 
 J. B. Foresman, and D. J. Fox, Gaussian, Inc., Wallingford CT, 2019.
 
 ******************************************
 Gaussian 16:  ES64L-G16RevC.01  3-Jul-2019
                23-Jan-2025 
 ******************************************
 %nprocshared=24
 Will use up to   24 processors via shared memory.
 %mem=24GB
 %chk=neutral.chk
 -------------------------------------------------------------------
 #p opt freq=noraman def2svp pbe1pbe em=gd3bj integral=ultrafinegrid
 -------------------------------------------------------------------
 1/18=20,19=15,26=4,38=1/1,3;
 2/9=110,12=2,17=6,18=5,40=1/2;
 3/5=43,7=101,11=2,25=1,30=1,71=1,74=-13,75=-5,124=41/1,2,3;
 4//1;
 5/5=2,38=5/2;
 6/7=2,8=2,9=2,10=2,28=1/1;
 7//1,2,3,16;
 1/18=20,19=15,26=4/3(2);
 2/9=110/2;
 99//99;
 2/9=110/2;
 3/5=43,7=101,11=2,25=1,30=1,71=1,74=-13,75=-5,124=41/1,2,3;
 4/5=5,16=3,69=1/1;
 5/5=2,38=5/2;
 7//1,2,3,16;
 1/18=20,19=15,26=4/3(-5);
 2/9=110/2;
 6/7=2,8=2,9=2,10=2,19=2,28=1/1;
 99/9=1/99;
 Leave Link    1 at Thu Jan 23 18:21:54 2025, MaxMem=  3221225472 cpu:               1.2 elap:               0.1
 (Enter /software/gaussian/G16-C.01/avx2/g16/l101.exe)
 -------
 neutral
 -------
 Symbolic Z-matrix:
 Charge =  0 Multiplicity = 1
 C                    -2.01661  -3.52781   2.38493 
 N                    -1.7319   -2.26433   1.9895 
 C                    -1.07455  -2.19965   0.79614 
 B                    -0.69789  -0.81816   0.16887 
 C                     0.67821  -0.57981  -0.56231 
 C                     1.76343  -1.30389  -0.28624 
 C                     3.07152  -1.023    -0.952 
 C                     3.69768   0.29549  -0.4628 
 C                     5.05836   0.55245  -1.1104 
 C                     5.68535   1.84415  -0.59209 
 C                    -1.69079   0.43675   0.38265 
 C                    -1.37629   1.44932   1.31164 
 C                    -0.09046   1.38966   2.14815 
 F                     1.00242   1.65996   1.35317 
 F                     0.05403   0.17444   2.75837 
 F                    -0.11547   2.36317   3.17121 
 C                    -2.23874   2.51418   1.47203 
 C                    -3.42946   2.61341   0.73523 
 C                    -4.37099   3.77695   0.94682 
 F                    -3.69733   4.92038   1.31592 
 F                    -5.26009   3.43527   1.96281 
 F                    -5.11958   4.04359  -0.17892 
 C                    -3.76057   1.5968   -0.14788 
 C                    -2.90288   0.50068  -0.34848 
 C                    -3.29605  -0.55545  -1.40072 
 F                    -4.4051   -0.20133  -2.10705 
 F                    -2.26485  -0.80837  -2.27448 
 F                    -3.58164  -1.73577  -0.71964 
 C                    -0.87603  -3.46223   0.2178 
 C                    -0.24574  -3.75845  -1.11691 
 S                    -1.47545  -4.62565   1.2349 
 H                    -2.53566  -3.77673   3.2844 
 H                     0.74503   0.29333  -1.21583 
 H                     1.72395  -2.13102   0.41414 
 H                     3.7713   -1.85998  -0.76034 
 H                     2.93059  -0.93385  -2.06488 
 H                     3.8266    0.22813   0.63608 
 H                     3.02123   1.1465   -0.65235 
 H                     5.75184  -0.28652  -0.86853 
 H                     4.93435   0.62932  -2.19504 
 H                     6.67474   2.00017  -1.06191 
 H                     5.00892   2.71744  -0.80861 
 H                     5.82256   1.79456   0.5113 
 H                    -2.01734   3.3068    2.17197 
 H                    -4.71335   1.64748  -0.68896 
 H                    -0.70494  -4.66497  -1.5639 
 H                    -0.39419  -2.92147  -1.82305 
 H                     0.8492   -3.96055  -0.99503 
 
 ITRead=  0  0  0  0  0  0  0  0  0  0  0  0  0  0  0  0  0  0  0  0
 ITRead=  0  0  0  0  0  0  0  0  0  0  0  0  0  0  0  0  0  0  0  0
 ITRead=  0  0  0  0  0  0  0  0
 MicOpt= -1 -1 -1 -1 -1 -1 -1 -1 -1 -1 -1 -1 -1 -1 -1 -1 -1 -1 -1 -1
 MicOpt= -1 -1 -1 -1 -1 -1 -1 -1 -1 -1 -1 -1 -1 -1 -1 -1 -1 -1 -1 -1
 MicOpt= -1 -1 -1 -1 -1 -1 -1 -1
 NAtoms=     48 NQM=       48 NQMF=       0 NMMI=      0 NMMIF=      0
                NMic=       0 NMicF=      0.
                    Isotopes and Nuclear Properties:
 (Nuclear quadrupole moments (NQMom) in fm**2, nuclear magnetic moments (NMagM)
  in nuclear magnetons)

  Atom         1           2           3           4           5           6           7           8           9          10
 IAtWgt=          12          14          12          11          12          12          12          12          12          12
 AtmWgt=  12.0000000  14.0030740  12.0000000  11.0093053  12.0000000  12.0000000  12.0000000  12.0000000  12.0000000  12.0000000
 NucSpn=           0           2           0           3           0           0           0           0           0           0
 AtZEff=  -0.0000000  -0.0000000  -0.0000000  -0.0000000  -0.0000000  -0.0000000  -0.0000000  -0.0000000  -0.0000000  -0.0000000
 NQMom=    0.0000000   2.0440000   0.0000000   4.0590000   0.0000000   0.0000000   0.0000000   0.0000000   0.0000000   0.0000000
 NMagM=    0.0000000   0.4037610   0.0000000   2.6886370   0.0000000   0.0000000   0.0000000   0.0000000   0.0000000   0.0000000
 AtZNuc=   6.0000000   7.0000000   6.0000000   5.0000000   6.0000000   6.0000000   6.0000000   6.0000000   6.0000000   6.0000000

  Atom        11          12          13          14          15          16          17          18          19          20
 IAtWgt=          12          12          12          19          19          19          12          12          12          19
 AtmWgt=  12.0000000  12.0000000  12.0000000  18.9984032  18.9984032  18.9984032  12.0000000  12.0000000  12.0000000  18.9984032
 NucSpn=           0           0           0           1           1           1           0           0           0           1
 AtZEff=  -0.0000000  -0.0000000  -0.0000000  -0.0000000  -0.0000000  -0.0000000  -0.0000000  -0.0000000  -0.0000000  -0.0000000
 NQMom=    0.0000000   0.0000000   0.0000000   0.0000000   0.0000000   0.0000000   0.0000000   0.0000000   0.0000000   0.0000000
 NMagM=    0.0000000   0.0000000   0.0000000   2.6288670   2.6288670   2.6288670   0.0000000   0.0000000   0.0000000   2.6288670
 AtZNuc=   6.0000000   6.0000000   6.0000000   9.0000000   9.0000000   9.0000000   6.0000000   6.0000000   6.0000000   9.0000000

  Atom        21          22          23          24          25          26          27          28          29          30
 IAtWgt=          19          19          12          12          12          19          19          19          12          12
 AtmWgt=  18.9984032  18.9984032  12.0000000  12.0000000  12.0000000  18.9984032  18.9984032  18.9984032  12.0000000  12.0000000
 NucSpn=           1           1           0           0           0           1           1           1           0           0
 AtZEff=  -0.0000000  -0.0000000  -0.0000000  -0.0000000  -0.0000000  -0.0000000  -0.0000000  -0.0000000  -0.0000000  -0.0000000
 NQMom=    0.0000000   0.0000000   0.0000000   0.0000000   0.0000000   0.0000000   0.0000000   0.0000000   0.0000000   0.0000000
 NMagM=    2.6288670   2.6288670   0.0000000   0.0000000   0.0000000   2.6288670   2.6288670   2.6288670   0.0000000   0.0000000
 AtZNuc=   9.0000000   9.0000000   6.0000000   6.0000000   6.0000000   9.0000000   9.0000000   9.0000000   6.0000000   6.0000000

  Atom        31          32          33          34          35          36          37          38          39          40
 IAtWgt=          32           1           1           1           1           1           1           1           1           1
 AtmWgt=  31.9720718   1.0078250   1.0078250   1.0078250   1.0078250   1.0078250   1.0078250   1.0078250   1.0078250   1.0078250
 NucSpn=           0           1           1           1           1           1           1           1           1           1
 AtZEff=  -0.0000000  -0.0000000  -0.0000000  -0.0000000  -0.0000000  -0.0000000  -0.0000000  -0.0000000  -0.0000000  -0.0000000
 NQMom=    0.0000000   0.0000000   0.0000000   0.0000000   0.0000000   0.0000000   0.0000000   0.0000000   0.0000000   0.0000000
 NMagM=    0.0000000   2.7928460   2.7928460   2.7928460   2.7928460   2.7928460   2.7928460   2.7928460   2.7928460   2.7928460
 AtZNuc=  16.0000000   1.0000000   1.0000000   1.0000000   1.0000000   1.0000000   1.0000000   1.0000000   1.0000000   1.0000000

  Atom        41          42          43          44          45          46          47          48
 IAtWgt=           1           1           1           1           1           1           1           1
 AtmWgt=   1.0078250   1.0078250   1.0078250   1.0078250   1.0078250   1.0078250   1.0078250   1.0078250
 NucSpn=           1           1           1           1           1           1           1           1
 AtZEff=  -0.0000000  -0.0000000  -0.0000000  -0.0000000  -0.0000000  -0.0000000  -0.0000000  -0.0000000
 NQMom=    0.0000000   0.0000000   0.0000000   0.0000000   0.0000000   0.0000000   0.0000000   0.0000000
 NMagM=    2.7928460   2.7928460   2.7928460   2.7928460   2.7928460   2.7928460   2.7928460   2.7928460
 AtZNuc=   1.0000000   1.0000000   1.0000000   1.0000000   1.0000000   1.0000000   1.0000000   1.0000000
 Leave Link  101 at Thu Jan 23 18:21:55 2025, MaxMem=  3221225472 cpu:               9.3 elap:               0.4
 (Enter /software/gaussian/G16-C.01/avx2/g16/l103.exe)

 GradGradGradGradGradGradGradGradGradGradGradGradGradGradGradGradGradGrad
 Berny optimization.
 Initialization pass.
                           ----------------------------
                           !    Initial Parameters    !
                           ! (Angstroms and Degrees)  !
 --------------------------                            --------------------------
 ! Name  Definition              Value          Derivative Info.                !
 --------------------------------------------------------------------------------
 ! R1    R(1,2)                  1.3542         estimate D2E/DX2                !
 ! R2    R(1,31)                 1.6795         estimate D2E/DX2                !
 ! R3    R(1,32)                 1.0679         estimate D2E/DX2                !
 ! R4    R(2,3)                  1.364          estimate D2E/DX2                !
 ! R5    R(3,4)                  1.5633         estimate D2E/DX2                !
 ! R6    R(3,29)                 1.4029         estimate D2E/DX2                !
 ! R7    R(4,5)                  1.5764         estimate D2E/DX2                !
 ! R8    R(4,11)                 1.6144         estimate D2E/DX2                !
 ! R9    R(5,6)                  1.3335         estimate D2E/DX2                !
 ! R10   R(5,33)                 1.0927         estimate D2E/DX2                !
 ! R11   R(6,7)                  1.4944         estimate D2E/DX2                !
 ! R12   R(6,34)                 1.0845         estimate D2E/DX2                !
 ! R13   R(7,8)                  1.5394         estimate D2E/DX2                !
 ! R14   R(7,35)                 1.1077         estimate D2E/DX2                !
 ! R15   R(7,36)                 1.1253         estimate D2E/DX2                !
 ! R16   R(8,9)                  1.5287         estimate D2E/DX2                !
 ! R17   R(8,37)                 1.1085         estimate D2E/DX2                !
 ! R18   R(8,38)                 1.1035         estimate D2E/DX2                !
 ! R19   R(9,10)                 1.5265         estimate D2E/DX2                !
 ! R20   R(9,39)                 1.115          estimate D2E/DX2                !
 ! R21   R(9,40)                 1.0944         estimate D2E/DX2                !
 ! R22   R(10,41)                1.1063         estimate D2E/DX2                !
 ! R23   R(10,42)                1.1256         estimate D2E/DX2                !
 ! R24   R(10,43)                1.113          estimate D2E/DX2                !
 ! R25   R(11,12)                1.4097         estimate D2E/DX2                !
 ! R26   R(11,24)                1.417          estimate D2E/DX2                !
 ! R27   R(12,13)                1.5351         estimate D2E/DX2                !
 ! R28   R(12,17)                1.3797         estimate D2E/DX2                !
 ! R29   R(13,14)                1.3782         estimate D2E/DX2                !
 ! R30   R(13,15)                1.3675         estimate D2E/DX2                !
 ! R31   R(13,16)                1.4124         estimate D2E/DX2                !
 ! R32   R(17,18)                1.4038         estimate D2E/DX2                !
 ! R33   R(17,44)                1.0804         estimate D2E/DX2                !
 ! R34   R(18,19)                1.5116         estimate D2E/DX2                !
 ! R35   R(18,23)                1.3867         estimate D2E/DX2                !
 ! R36   R(19,20)                1.3775         estimate D2E/DX2                !
 ! R37   R(19,21)                1.3927         estimate D2E/DX2                !
 ! R38   R(19,22)                1.378          estimate D2E/DX2                !
 ! R39   R(23,24)                1.4062         estimate D2E/DX2                !
 ! R40   R(23,45)                1.0969         estimate D2E/DX2                !
 ! R41   R(24,25)                1.5418         estimate D2E/DX2                !
 ! R42   R(25,26)                1.3617         estimate D2E/DX2                !
 ! R43   R(25,27)                1.3751         estimate D2E/DX2                !
 ! R44   R(25,28)                1.3923         estimate D2E/DX2                !
 ! R45   R(29,30)                1.5055         estimate D2E/DX2                !
 ! R46   R(29,31)                1.6575         estimate D2E/DX2                !
 ! R47   R(30,46)                1.1102         estimate D2E/DX2                !
 ! R48   R(30,47)                1.1051         estimate D2E/DX2                !
 ! R49   R(30,48)                1.1201         estimate D2E/DX2                !
 ! A1    A(2,1,31)             110.0109         estimate D2E/DX2                !
 ! A2    A(2,1,32)             124.4448         estimate D2E/DX2                !
 ! A3    A(31,1,32)            125.5209         estimate D2E/DX2                !
 ! A4    A(1,2,3)              113.6437         estimate D2E/DX2                !
 ! A5    A(2,3,4)              120.6026         estimate D2E/DX2                !
 ! A6    A(2,3,29)             112.7193         estimate D2E/DX2                !
 ! A7    A(4,3,29)             126.5723         estimate D2E/DX2                !
 ! A8    A(3,4,5)              122.0083         estimate D2E/DX2                !
 ! A9    A(3,4,11)             119.0523         estimate D2E/DX2                !
 ! A10   A(5,4,11)             118.7353         estimate D2E/DX2                !
 ! A11   A(4,5,6)              122.1595         estimate D2E/DX2                !
 ! A12   A(4,5,33)             116.8471         estimate D2E/DX2                !
 ! A13   A(6,5,33)             120.5281         estimate D2E/DX2                !
 ! A14   A(5,6,7)              121.202          estimate D2E/DX2                !
 ! A15   A(5,6,34)             121.2112         estimate D2E/DX2                !
 ! A16   A(7,6,34)             117.5749         estimate D2E/DX2                !
 ! A17   A(6,7,8)              112.052          estimate D2E/DX2                !
 ! A18   A(6,7,35)             109.5041         estimate D2E/DX2                !
 ! A19   A(6,7,36)             110.2338         estimate D2E/DX2                !
 ! A20   A(8,7,35)             109.5862         estimate D2E/DX2                !
 ! A21   A(8,7,36)             107.2993         estimate D2E/DX2                !
 ! A22   A(35,7,36)            108.0654         estimate D2E/DX2                !
 ! A23   A(7,8,9)              111.8013         estimate D2E/DX2                !
 ! A24   A(7,8,37)             108.0774         estimate D2E/DX2                !
 ! A25   A(7,8,38)             110.8911         estimate D2E/DX2                !
 ! A26   A(9,8,37)             109.066          estimate D2E/DX2                !
 ! A27   A(9,8,38)             110.0738         estimate D2E/DX2                !
 ! A28   A(37,8,38)            106.7647         estimate D2E/DX2                !
 ! A29   A(8,9,10)             111.3451         estimate D2E/DX2                !
 ! A30   A(8,9,39)             109.5858         estimate D2E/DX2                !
 ! A31   A(8,9,40)             109.3173         estimate D2E/DX2                !
 ! A32   A(10,9,39)            107.9132         estimate D2E/DX2                !
 ! A33   A(10,9,40)            108.8819         estimate D2E/DX2                !
 ! A34   A(39,9,40)            109.7738         estimate D2E/DX2                !
 ! A35   A(9,10,41)            110.0267         estimate D2E/DX2                !
 ! A36   A(9,10,42)            110.1419         estimate D2E/DX2                !
 ! A37   A(9,10,43)            110.4596         estimate D2E/DX2                !
 ! A38   A(41,10,42)           110.2613         estimate D2E/DX2                !
 ! A39   A(41,10,43)           108.4839         estimate D2E/DX2                !
 ! A40   A(42,10,43)           107.4182         estimate D2E/DX2                !
 ! A41   A(4,11,12)            120.5567         estimate D2E/DX2                !
 ! A42   A(4,11,24)            119.5274         estimate D2E/DX2                !
 ! A43   A(12,11,24)           119.8987         estimate D2E/DX2                !
 ! A44   A(11,12,13)           121.2011         estimate D2E/DX2                !
 ! A45   A(11,12,17)           119.4422         estimate D2E/DX2                !
 ! A46   A(13,12,17)           119.3567         estimate D2E/DX2                !
 ! A47   A(12,13,14)           110.0142         estimate D2E/DX2                !
 ! A48   A(12,13,15)           111.4817         estimate D2E/DX2                !
 ! A49   A(12,13,16)           110.675          estimate D2E/DX2                !
 ! A50   A(14,13,15)           110.3587         estimate D2E/DX2                !
 ! A51   A(14,13,16)           107.2576         estimate D2E/DX2                !
 ! A52   A(15,13,16)           106.9266         estimate D2E/DX2                !
 ! A53   A(12,17,18)           121.5867         estimate D2E/DX2                !
 ! A54   A(12,17,44)           120.8953         estimate D2E/DX2                !
 ! A55   A(18,17,44)           117.5178         estimate D2E/DX2                !
 ! A56   A(17,18,19)           120.6151         estimate D2E/DX2                !
 ! A57   A(17,18,23)           119.0104         estimate D2E/DX2                !
 ! A58   A(19,18,23)           120.3115         estimate D2E/DX2                !
 ! A59   A(18,19,20)           111.8286         estimate D2E/DX2                !
 ! A60   A(18,19,21)           108.114          estimate D2E/DX2                !
 ! A61   A(18,19,22)           111.8985         estimate D2E/DX2                !
 ! A62   A(20,19,21)           108.6868         estimate D2E/DX2                !
 ! A63   A(20,19,22)           108.9027         estimate D2E/DX2                !
 ! A64   A(21,19,22)           107.2562         estimate D2E/DX2                !
 ! A65   A(18,23,24)           121.1088         estimate D2E/DX2                !
 ! A66   A(18,23,45)           119.1876         estimate D2E/DX2                !
 ! A67   A(24,23,45)           119.7004         estimate D2E/DX2                !
 ! A68   A(11,24,23)           118.9018         estimate D2E/DX2                !
 ! A69   A(11,24,25)           122.6411         estimate D2E/DX2                !
 ! A70   A(23,24,25)           118.4093         estimate D2E/DX2                !
 ! A71   A(24,25,26)           112.5539         estimate D2E/DX2                !
 ! A72   A(24,25,27)           111.618          estimate D2E/DX2                !
 ! A73   A(24,25,28)           107.4069         estimate D2E/DX2                !
 ! A74   A(26,25,27)           109.2083         estimate D2E/DX2                !
 ! A75   A(26,25,28)           107.8869         estimate D2E/DX2                !
 ! A76   A(27,25,28)           107.9823         estimate D2E/DX2                !
 ! A77   A(3,29,30)            127.0007         estimate D2E/DX2                !
 ! A78   A(3,29,31)            109.1214         estimate D2E/DX2                !
 ! A79   A(30,29,31)           123.8714         estimate D2E/DX2                !
 ! A80   A(29,30,46)           110.1484         estimate D2E/DX2                !
 ! A81   A(29,30,47)           111.177          estimate D2E/DX2                !
 ! A82   A(29,30,48)           110.3833         estimate D2E/DX2                !
 ! A83   A(46,30,47)           107.7953         estimate D2E/DX2                !
 ! A84   A(46,30,48)           107.5068         estimate D2E/DX2                !
 ! A85   A(47,30,48)           109.7254         estimate D2E/DX2                !
 ! A86   A(1,31,29)             94.4676         estimate D2E/DX2                !
 ! D1    D(31,1,2,3)            -0.949          estimate D2E/DX2                !
 ! D2    D(32,1,2,3)          -179.2699         estimate D2E/DX2                !
 ! D3    D(2,1,31,29)           -0.2295         estimate D2E/DX2                !
 ! D4    D(32,1,31,29)         178.0692         estimate D2E/DX2                !
 ! D5    D(1,2,3,4)            178.4539         estimate D2E/DX2                !
 ! D6    D(1,2,3,29)             1.9543         estimate D2E/DX2                !
 ! D7    D(2,3,4,5)            140.5821         estimate D2E/DX2                !
 ! D8    D(2,3,4,11)           -34.1591         estimate D2E/DX2                !
 ! D9    D(29,3,4,5)           -43.4391         estimate D2E/DX2                !
 ! D10   D(29,3,4,11)          141.8197         estimate D2E/DX2                !
 ! D11   D(2,3,29,30)          177.0504         estimate D2E/DX2                !
 ! D12   D(2,3,29,31)           -2.0389         estimate D2E/DX2                !
 ! D13   D(4,3,29,30)            0.8023         estimate D2E/DX2                !
 ! D14   D(4,3,29,31)         -178.287          estimate D2E/DX2                !
 ! D15   D(3,4,5,6)            -25.3064         estimate D2E/DX2                !
 ! D16   D(3,4,5,33)           162.4885         estimate D2E/DX2                !
 ! D17   D(11,4,5,6)           149.4509         estimate D2E/DX2                !
 ! D18   D(11,4,5,33)          -22.7543         estimate D2E/DX2                !
 ! D19   D(3,4,11,12)          103.6163         estimate D2E/DX2                !
 ! D20   D(3,4,11,24)          -74.8714         estimate D2E/DX2                !
 ! D21   D(5,4,11,12)          -71.2985         estimate D2E/DX2                !
 ! D22   D(5,4,11,24)          110.2138         estimate D2E/DX2                !
 ! D23   D(4,5,6,7)           -177.4679         estimate D2E/DX2                !
 ! D24   D(4,5,6,34)             3.815          estimate D2E/DX2                !
 ! D25   D(33,5,6,7)            -5.5436         estimate D2E/DX2                !
 ! D26   D(33,5,6,34)          175.7393         estimate D2E/DX2                !
 ! D27   D(5,6,7,8)             70.6432         estimate D2E/DX2                !
 ! D28   D(5,6,7,35)          -167.5416         estimate D2E/DX2                !
 ! D29   D(5,6,7,36)           -48.7795         estimate D2E/DX2                !
 ! D30   D(34,6,7,8)          -110.5946         estimate D2E/DX2                !
 ! D31   D(34,6,7,35)           11.2206         estimate D2E/DX2                !
 ! D32   D(34,6,7,36)          129.9827         estimate D2E/DX2                !
 ! D33   D(6,7,8,9)            177.9775         estimate D2E/DX2                !
 ! D34   D(6,7,8,37)            57.9342         estimate D2E/DX2                !
 ! D35   D(6,7,8,38)           -58.7683         estimate D2E/DX2                !
 ! D36   D(35,7,8,9)            56.2093         estimate D2E/DX2                !
 ! D37   D(35,7,8,37)          -63.834          estimate D2E/DX2                !
 ! D38   D(35,7,8,38)          179.4635         estimate D2E/DX2                !
 ! D39   D(36,7,8,9)           -60.8917         estimate D2E/DX2                !
 ! D40   D(36,7,8,37)          179.065          estimate D2E/DX2                !
 ! D41   D(36,7,8,38)           62.3625         estimate D2E/DX2                !
 ! D42   D(7,8,9,10)          -178.5788         estimate D2E/DX2                !
 ! D43   D(7,8,9,39)           -59.2676         estimate D2E/DX2                !
 ! D44   D(7,8,9,40)            61.0789         estimate D2E/DX2                !
 ! D45   D(37,8,9,10)          -59.1166         estimate D2E/DX2                !
 ! D46   D(37,8,9,39)           60.1946         estimate D2E/DX2                !
 ! D47   D(37,8,9,40)         -179.4589         estimate D2E/DX2                !
 ! D48   D(38,8,9,10)           57.7055         estimate D2E/DX2                !
 ! D49   D(38,8,9,39)          177.0167         estimate D2E/DX2                !
 ! D50   D(38,8,9,40)          -62.6368         estimate D2E/DX2                !
 ! D51   D(8,9,10,41)          179.0883         estimate D2E/DX2                !
 ! D52   D(8,9,10,42)          -59.1566         estimate D2E/DX2                !
 ! D53   D(8,9,10,43)           59.3427         estimate D2E/DX2                !
 ! D54   D(39,9,10,41)          58.786          estimate D2E/DX2                !
 ! D55   D(39,9,10,42)        -179.4589         estimate D2E/DX2                !
 ! D56   D(39,9,10,43)         -60.9596         estimate D2E/DX2                !
 ! D57   D(40,9,10,41)         -60.3131         estimate D2E/DX2                !
 ! D58   D(40,9,10,42)          61.4421         estimate D2E/DX2                !
 ! D59   D(40,9,10,43)         179.9414         estimate D2E/DX2                !
 ! D60   D(4,11,12,13)          -0.2124         estimate D2E/DX2                !
 ! D61   D(4,11,12,17)         179.7443         estimate D2E/DX2                !
 ! D62   D(24,11,12,13)        178.2696         estimate D2E/DX2                !
 ! D63   D(24,11,12,17)         -1.7736         estimate D2E/DX2                !
 ! D64   D(4,11,24,23)         179.7354         estimate D2E/DX2                !
 ! D65   D(4,11,24,25)          -2.8224         estimate D2E/DX2                !
 ! D66   D(12,11,24,23)          1.2376         estimate D2E/DX2                !
 ! D67   D(12,11,24,25)        178.6798         estimate D2E/DX2                !
 ! D68   D(11,12,13,14)         72.6521         estimate D2E/DX2                !
 ! D69   D(11,12,13,15)        -50.1164         estimate D2E/DX2                !
 ! D70   D(11,12,13,16)       -168.9932         estimate D2E/DX2                !
 ! D71   D(17,12,13,14)       -107.3047         estimate D2E/DX2                !
 ! D72   D(17,12,13,15)        129.9268         estimate D2E/DX2                !
 ! D73   D(17,12,13,16)         11.0499         estimate D2E/DX2                !
 ! D74   D(11,12,17,18)          0.2776         estimate D2E/DX2                !
 ! D75   D(11,12,17,44)       -179.5464         estimate D2E/DX2                !
 ! D76   D(13,12,17,18)       -179.7648         estimate D2E/DX2                !
 ! D77   D(13,12,17,44)          0.4112         estimate D2E/DX2                !
 ! D78   D(12,17,18,19)        178.8712         estimate D2E/DX2                !
 ! D79   D(12,17,18,23)          1.7491         estimate D2E/DX2                !
 ! D80   D(44,17,18,19)         -1.2991         estimate D2E/DX2                !
 ! D81   D(44,17,18,23)       -178.4211         estimate D2E/DX2                !
 ! D82   D(17,18,19,20)         30.8103         estimate D2E/DX2                !
 ! D83   D(17,18,19,21)        -88.8045         estimate D2E/DX2                !
 ! D84   D(17,18,19,22)        153.2988         estimate D2E/DX2                !
 ! D85   D(23,18,19,20)       -152.1052         estimate D2E/DX2                !
 ! D86   D(23,18,19,21)         88.28           estimate D2E/DX2                !
 ! D87   D(23,18,19,22)        -29.6166         estimate D2E/DX2                !
 ! D88   D(17,18,23,24)         -2.2885         estimate D2E/DX2                !
 ! D89   D(17,18,23,45)        177.0648         estimate D2E/DX2                !
 ! D90   D(19,18,23,24)       -179.4195         estimate D2E/DX2                !
 ! D91   D(19,18,23,45)         -0.0662         estimate D2E/DX2                !
 ! D92   D(18,23,24,11)          0.8144         estimate D2E/DX2                !
 ! D93   D(18,23,24,25)       -176.7369         estimate D2E/DX2                !
 ! D94   D(45,23,24,11)       -178.5357         estimate D2E/DX2                !
 ! D95   D(45,23,24,25)          3.913          estimate D2E/DX2                !
 ! D96   D(11,24,25,26)       -171.5286         estimate D2E/DX2                !
 ! D97   D(11,24,25,27)        -48.313          estimate D2E/DX2                !
 ! D98   D(11,24,25,28)         69.8681         estimate D2E/DX2                !
 ! D99   D(23,24,25,26)          5.9255         estimate D2E/DX2                !
 ! D100  D(23,24,25,27)        129.1411         estimate D2E/DX2                !
 ! D101  D(23,24,25,28)       -112.6777         estimate D2E/DX2                !
 ! D102  D(3,29,30,46)        -147.8926         estimate D2E/DX2                !
 ! D103  D(3,29,30,47)         -28.4692         estimate D2E/DX2                !
 ! D104  D(3,29,30,48)          93.5419         estimate D2E/DX2                !
 ! D105  D(31,29,30,46)         31.0711         estimate D2E/DX2                !
 ! D106  D(31,29,30,47)        150.4945         estimate D2E/DX2                !
 ! D107  D(31,29,30,48)        -87.4944         estimate D2E/DX2                !
 ! D108  D(3,29,31,1)            1.278          estimate D2E/DX2                !
 ! D109  D(30,29,31,1)        -177.8461         estimate D2E/DX2                !
 --------------------------------------------------------------------------------
 Trust Radius=3.00D-01 FncErr=1.00D-07 GrdErr=1.00D-06 EigMax=2.50D+02 EigMin=1.00D-04
 Number of steps in this run=    254 maximum allowed number of steps=    288.
 GradGradGradGradGradGradGradGradGradGradGradGradGradGradGradGradGradGrad

 Leave Link  103 at Thu Jan 23 18:21:55 2025, MaxMem=  3221225472 cpu:               0.3 elap:               0.0
 (Enter /software/gaussian/G16-C.01/avx2/g16/l202.exe)
                          Input orientation:                          
 ---------------------------------------------------------------------
 Center     Atomic      Atomic             Coordinates (Angstroms)
 Number     Number       Type             X           Y           Z
 ---------------------------------------------------------------------
      1          6           0       -2.016610   -3.527812    2.384930
      2          7           0       -1.731899   -2.264330    1.989504
      3          6           0       -1.074546   -2.199654    0.796141
      4          5           0       -0.697892   -0.818156    0.168875
      5          6           0        0.678213   -0.579811   -0.562311
      6          6           0        1.763425   -1.303892   -0.286238
      7          6           0        3.071521   -1.023002   -0.952004
      8          6           0        3.697675    0.295486   -0.462798
      9          6           0        5.058362    0.552446   -1.110405
     10          6           0        5.685349    1.844148   -0.592088
     11          6           0       -1.690792    0.436748    0.382651
     12          6           0       -1.376290    1.449323    1.311639
     13          6           0       -0.090461    1.389658    2.148152
     14          9           0        1.002419    1.659957    1.353174
     15          9           0        0.054035    0.174445    2.758374
     16          9           0       -0.115472    2.363172    3.171212
     17          6           0       -2.238743    2.514184    1.472030
     18          6           0       -3.429459    2.613414    0.735230
     19          6           0       -4.370985    3.776948    0.946816
     20          9           0       -3.697328    4.920382    1.315915
     21          9           0       -5.260086    3.435265    1.962810
     22          9           0       -5.119579    4.043586   -0.178918
     23          6           0       -3.760569    1.596796   -0.147877
     24          6           0       -2.902875    0.500677   -0.348482
     25          6           0       -3.296053   -0.555451   -1.400715
     26          9           0       -4.405098   -0.201326   -2.107047
     27          9           0       -2.264848   -0.808375   -2.274483
     28          9           0       -3.581636   -1.735772   -0.719638
     29          6           0       -0.876035   -3.462234    0.217800
     30          6           0       -0.245737   -3.758448   -1.116910
     31         16           0       -1.475448   -4.625647    1.234904
     32          1           0       -2.535665   -3.776726    3.284400
     33          1           0        0.745030    0.293326   -1.215832
     34          1           0        1.723951   -2.131018    0.414139
     35          1           0        3.771298   -1.859985   -0.760341
     36          1           0        2.930591   -0.933851   -2.064876
     37          1           0        3.826602    0.228130    0.636078
     38          1           0        3.021228    1.146503   -0.652347
     39          1           0        5.751837   -0.286517   -0.868534
     40          1           0        4.934352    0.629315   -2.195038
     41          1           0        6.674737    2.000174   -1.061912
     42          1           0        5.008921    2.717444   -0.808612
     43          1           0        5.822559    1.794559    0.511298
     44          1           0       -2.017344    3.306801    2.171968
     45          1           0       -4.713346    1.647482   -0.688956
     46          1           0       -0.704937   -4.664974   -1.563898
     47          1           0       -0.394187   -2.921472   -1.823052
     48          1           0        0.849200   -3.960554   -0.995028
 ---------------------------------------------------------------------
                    Distance matrix (angstroms):
                    1          2          3          4          5
     1  C    0.000000
     2  N    1.354182   0.000000
     3  C    2.275025   1.363968   0.000000
     4  B    3.740608   2.544656   1.563287   0.000000
     5  C    4.963769   3.893327   2.746169   1.576422   0.000000
     6  C    5.135136   4.280038   3.166704   2.549735   1.333490
     7  C    6.580142   5.767686   4.650848   3.937868   2.464995
     8  C    7.441789   6.484344   5.530348   4.578234   3.145346
     9  C    8.883755   7.978177   6.987241   6.053889   4.557206
    10  C    9.850926   8.863395   7.998480   6.957923   5.563081
    11  C    4.453427   3.143165   2.738859   1.614414   2.745638
    12  C    5.131651   3.791725   3.697543   2.628231   3.442391
    13  C    5.286551   4.008879   3.959737   3.026707   3.437482
    14  F    6.090320   4.825083   4.418219   3.230273   2.964920
    15  F    4.258372   3.119029   3.280304   2.873353   3.462001
    16  F    6.239892   5.042126   5.232605   4.412946   4.819780
    17  C    6.114608   4.833100   4.902289   3.895757   4.713807
    18  C    6.514008   5.314818   5.358633   4.422430   5.362207
    19  C    7.808378   6.674504   6.827077   5.933952   6.837632
    20  F    8.679837   7.479085   7.605528   6.575951   7.274971
    21  F    7.693033   6.703298   7.115629   6.490255   7.600030
    22  F    8.574835   7.481192   7.502738   6.580943   7.425441
    23  C    5.976463   4.857179   4.745411   3.913095   4.961064
    24  C    4.948305   3.805604   3.456116   2.620864   3.746647
    25  C    4.980263   4.106146   3.530535   3.046813   4.061810
    26  F    6.078507   5.308833   4.849164   4.393595   5.326303
    27  F    5.400656   4.537116   3.575082   2.902661   3.412533
    28  F    3.911400   3.322702   2.966188   3.153958   4.416708
    29  C    2.449829   2.303565   1.402852   2.650523   3.366396
    30  C    3.930912   3.753781   2.603177   3.240833   3.356337
    31  S    1.679481   2.492189   2.497734   4.029640   4.923111
    32  H    1.067906   2.147123   3.288382   4.673012   5.945289
    33  H    5.932388   4.790715   3.684269   2.287975   1.092667
    34  H    4.452735   3.800322   2.825283   2.765698   2.110276
    35  H    6.795164   6.165250   5.101001   4.682148   3.353392
    36  H    7.141722   6.320362   5.082204   4.262501   2.730614
    37  H    7.163009   6.240275   5.471837   4.667337   3.464283
    38  H    7.513593   6.419141   5.483634   4.285574   2.911698
    39  H    9.024400   8.251450   7.282221   6.554226   5.091312
    40  H    9.304498   8.385849   7.284029   6.277375   4.716196
    41  H   10.861807   9.908010   9.007902   7.988335   6.547078
    42  H    9.927740   8.836638   7.985090   6.784075   5.448632
    43  H    9.658711   8.702270   7.975269   7.032767   5.766677
    44  H    6.837930   5.581422   5.753504   4.771646   5.463338
    45  H    6.595819   5.600486   5.499712   4.789479   5.834876
    46  H    4.313567   4.409581   3.432812   4.219070   4.427734
    47  H    4.550497   4.093518   2.800729   2.912722   2.867557
    48  H    4.452443   4.294959   3.163836   3.690912   3.412610
                    6          7          8          9         10
     6  C    0.000000
     7  C    1.494409   0.000000
     8  C    2.516050   1.539416   0.000000
     9  C    3.870640   2.540604   1.528689   0.000000
    10  C    5.038371   3.896432   2.523076   1.526518   0.000000
    11  C    3.925412   5.156723   5.456218   6.913298   7.572209
    12  C    4.471154   5.569514   5.497735   6.933645   7.324398
    13  C    4.076563   5.042819   4.729086   6.150569   6.409014
    14  F    3.471484   4.097962   3.524761   4.873036   5.074230
    15  F    3.791722   4.930112   4.864845   6.336689   6.762041
    16  F    5.378808   6.214821   5.658750   6.955540   6.934071
    17  C    5.804012   6.825432   6.626254   7.985307   8.215885
    18  C    6.584431   7.637605   7.589736   8.927321   9.243012
    19  C    8.060170   9.057369   8.900049  10.175567  10.355375
    20  F    8.433760   9.288949   8.901660  10.081072  10.056755
    21  F    8.766273   9.888779   9.797105  11.145657  11.351727
    22  F    8.716811   9.662406   9.585031  10.800288  11.034252
    23  C    6.240805   7.361210   7.577466   8.932563   9.459592
    24  C    5.003469   6.195098   6.604728   7.997781   8.696083
    25  C    5.234553   6.400464   7.107462   8.432554   9.331534
    26  F    6.525464   7.609803   8.282832   9.545603  10.406545
    27  F    4.519474   5.501986   6.328696   7.538987   8.548214
    28  F    5.379966   6.695262   7.561769   8.946408   9.935245
    29  C    3.446627   4.785550   5.958397   7.286896   8.477344
    30  C    3.278962   4.302797   5.693219   6.835007   8.175714
    31  S    4.882440   6.199721   7.339002   8.660473   9.822075
    32  H    6.111181   7.547890   8.335402   9.783930  10.686741
    33  H    2.110066   2.686053   3.047159   4.322394   5.215444
    34  H    1.084537   2.215849   3.248465   4.543513   5.701500
    35  H    2.136718   1.107683   2.177156   2.756611   4.172828
    36  H    2.159343   1.125298   2.160172   2.765413   4.180320
    37  H    2.730285   2.158120   1.108462   2.161624   2.752244
    38  H    2.778586   2.190680   1.103512   2.170861   2.754611
    39  H    4.157109   2.780913   2.173231   1.115019   2.149552
    40  H    4.175594   2.783061   2.154406   1.094402   2.146919
    41  H    5.969884   4.704768   3.482499   2.170469   1.106331
    42  H    5.193964   4.214857   2.775758   2.186490   1.125648
    43  H    5.168465   4.200965   2.776907   2.181000   1.112989
    44  H    6.449456   7.375835   6.976493   8.272004   8.313293
    45  H    7.128910   8.234369   8.521990   9.841900  10.401006
    46  H    4.361432   5.282045   6.723211   7.787345   9.173267
    47  H    3.103813   4.046485   5.379818   6.504326   7.822222
    48  H    2.897592   3.683717   5.148879   6.172319   7.566059
                   11         12         13         14         15
    11  C    0.000000
    12  C    1.409695   0.000000
    13  C    2.566338   1.535145   0.000000
    14  F    3.113124   2.388377   1.378201   0.000000
    15  F    2.959270   2.400872   1.367477   2.254055   0.000000
    16  F    3.737488   2.425447   1.412447   2.247099   2.233762
    17  C    2.408887   1.379666   2.517302   3.353947   3.519359
    18  C    2.808051   2.429579   3.826595   4.575202   4.709183
    19  C    4.319566   3.810397   5.046310   5.789667   5.986699
    20  F    5.000014   4.175581   5.115478   5.720086   6.219109
    21  F    4.922181   4.410426   5.562722   6.537762   6.285360
    22  F    5.008116   4.792094   6.144153   6.745951   7.096775
    23  C    2.431286   2.799414   4.334091   4.994316   5.002057
    24  C    1.416964   2.446710   3.864342   4.414848   4.301429
    25  C    2.596482   3.880911   5.162725   5.564961   5.390163
    26  F    3.738073   4.856514   6.265304   6.684215   6.610400
    27  F    2.990022   4.329781   5.396203   5.470611   5.627859
    28  F    3.083857   4.374296   5.493708   6.069685   5.381783
    29  C    3.986610   5.056692   5.280553   5.572656   4.532657
    30  C    4.683645   5.856354   6.098175   6.084268   5.529497
    31  S    5.138146   6.076264   6.239880   6.757412   5.263189
    32  H    5.185298   5.705044   5.827659   6.767953   4.753420
    33  H    2.917010   3.496346   3.635434   2.921253   4.035582
    34  H    4.272573   4.820357   4.323662   3.971635   3.687712
    35  H    6.034554   6.460827   5.825178   4.952133   5.508022
    36  H    5.406118   5.969053   5.681114   4.704121   5.724215
    37  H    5.527149   5.386815   4.356478   3.246593   4.328889
    38  H    4.876280   4.825671   4.193391   2.891598   4.624083
    39  H    7.581643   7.653528   6.785456   5.593007   6.769926
    40  H    7.111547   7.265907   6.685071   5.395566   6.968550
    41  H    8.632100   8.411672   7.512999   6.174430   7.858853
    42  H    7.176827   6.846497   6.042282   4.673720   6.613708
    43  H    7.636140   7.251424   6.148743   4.894959   6.399218
    44  H    3.397867   2.145073   2.718250   3.535744   3.800807
    45  H    3.427835   3.895842   5.430168   6.069631   6.064803
    46  H    5.548741   6.789996   7.128496   7.171409   6.532843
    47  H    4.221842   5.467601   5.869289   5.747034   5.547528
    48  H    5.261732   6.288107   6.275931   6.093247   5.640791
                   16         17         18         19         20
    16  F    0.000000
    17  C    2.723656   0.000000
    18  C    4.120575   1.403754   0.000000
    19  C    5.005606   2.533156   1.511639   0.000000
    20  F    4.776101   2.818090   2.393961   1.377494   0.000000
    21  F    5.392279   3.196525   2.352358   1.392656   2.250834
    22  F    6.252059   3.655669   2.395322   1.377957   2.241895
    23  C    4.989029   2.404507   1.386731   2.514760   3.632204
    24  C    4.860735   2.794556   2.432155   3.816686   4.789067
    25  C    6.287843   4.335115   3.823841   5.043417   6.125834
    26  F    7.268944   4.987672   4.117422   5.015366   6.200766
    27  F    6.658387   5.007637   4.703544   5.986465   6.910977
    28  F    6.629807   4.966779   4.588596   5.812936   6.961411
    29  C    6.575443   6.256806   6.610688   8.071672   8.912564
    30  C    7.475238   7.072523   7.359832   8.835090   9.651642
    31  S    7.378509   7.184429   7.514774   8.892172   9.801529
    32  H    6.600643   6.553502   6.937653   8.117308   8.992445
    33  H    4.926549   4.589086   5.159051   6.556392   6.895936
    34  H    5.584145   6.196771   7.012158   8.505060   8.940118
    35  H    6.956949   7.761277   8.608073  10.049187  10.298766
    36  H    6.896773   7.149871   7.802173   9.196462   9.467370
    37  H    5.150268   6.535538   7.638706   8.938182   8.893195
    38  H    5.093012   5.835308   6.759331   8.007582   7.953314
    39  H    7.600376   8.784733   9.761038  11.057973  11.007740
    40  H    7.569916   8.273657   9.081655  10.313493  10.258945
    41  H    8.009872   9.280905  10.281078  11.366613  11.034556
    42  H    6.497994   7.600742   8.579075   9.601392   9.228507
    43  H    6.531361   8.150181   9.290882  10.393646  10.052185
    44  H    2.346496   1.080358   2.130510   2.694747   2.481696
    45  H    6.045954   3.397748   2.147020   2.706951   3.970350
    46  H    8.494914   7.944162   8.104562   9.539897  10.446376
    47  H    7.276525   6.618633   6.811214   8.267764   9.069649
    48  H    7.633980   7.585776   8.032295   9.533626  10.241211
                   21         22         23         24         25
    21  F    0.000000
    22  F    2.230872   0.000000
    23  C    3.175455   2.799045   0.000000
    24  C    4.417049   4.182671   1.406186   0.000000
    25  C    5.576427   5.095996   2.533288   1.541814   0.000000
    26  F    5.524449   4.716719   2.736240   2.417030   1.361723
    27  F    6.703326   6.006863   3.541819   2.414575   1.375072
    28  F    6.062371   6.004884   3.385992   2.366469   1.392330
    29  C    8.357060   8.631476   5.835070   4.487028   4.114057
    30  C    9.293970   9.246940   6.478557   5.078485   4.432173
    31  S    8.934855   9.509689   6.771459   5.551923   5.179536
    32  H    7.821885   8.934678   6.492739   5.623953   5.736298
    33  H    7.485784   7.037989   4.810404   3.755330   4.133395
    34  H    9.064141   9.236415   6.655255   5.377260   5.565658
    35  H   10.817630  10.688213   8.309842   7.091328   7.215216
    36  H   10.119220   9.650749   7.406125   6.247656   6.273387
    37  H    9.726964   9.759922   7.749387   6.806577   7.449479
    38  H    8.980959   8.653899   6.815425   5.966944   6.585191
    39  H   11.963721  11.722332   9.723790   8.705985   9.067517
    40  H   11.361673  10.807568   8.984906   8.052854   8.353095
    41  H   12.395500  12.002546  10.483024   9.720501  10.298673
    42  H   10.660608  10.234339   8.865460   8.229356   8.946230
    43  H   11.297071  11.192180   9.607807   8.862649   9.608716
    44  H    3.252019   3.961487   3.368179   3.874424   5.414439
    45  H    3.244527   2.483240   1.096868   2.169998   2.714449
    46  H    9.939865   9.861351   7.109977   5.743876   4.860935
    47  H    8.855384   8.575811   5.878222   4.492102   3.767924
    48  H   10.038442  10.017915   7.269923   5.865038   5.379818
                   26         27         28         29         30
    26  F    0.000000
    27  F    2.230967   0.000000
    28  F    2.226549   2.238647   0.000000
    29  C    5.337857   3.896568   3.343611   0.000000
    30  C    5.561813   3.757621   3.921385   1.505480   0.000000
    31  S    6.271053   5.245047   4.075247   1.657506   2.791998
    32  H    6.733942   6.307585   4.614311   3.501044   4.961414
    33  H    5.250025   3.375478   4.804528   4.334441   4.172322
    34  H    6.902560   4.988847   5.439754   2.927561   2.978643
    35  H    8.450930   6.311384   7.354095   5.012152   4.457340
    36  H    7.372293   5.201179   6.697898   5.108202   4.355002
    37  H    8.687350   6.830188   7.783114   5.992372   5.962358
    38  H    7.686554   5.864766   7.204849   6.098054   5.911635
    39  H   10.232522   8.155751   9.446493   7.429266   6.934472
    40  H    9.376728   7.341781   8.960608   7.504875   6.873729
    41  H   11.344675   9.448517  10.920972   9.406898   9.003206
    42  H    9.941273   8.215102   9.676607   8.595036   8.345277
    43  H   10.744498   8.941028  10.120144   8.520045   8.385175
    44  H    6.026466   6.063568   6.019629   7.137310   7.992062
    45  H    2.350338   3.813170   3.567649   6.454174   7.026147
    46  H    5.823260   4.220380   4.191467   2.156456   1.110158
    47  H    4.854612   2.858031   3.575366   2.165567   1.105080
    48  H    6.555611   4.611999   4.965662   2.166959   1.120085
                   31         32         33         34         35
    31  S    0.000000
    32  H    2.458690   0.000000
    33  H    5.927303   6.897852   0.000000
    34  H    4.139201   5.393615   3.080995   0.000000
    35  H    6.257654   7.733796   3.741993   2.375813   0.000000
    36  H    6.628053   8.159451   2.646415   3.005778   1.807298
    37  H    7.213145   7.970628   3.595817   3.167960   2.512621
    38  H    7.556423   8.403286   2.495296   3.682725   3.100522
    39  H    8.688277   9.905105   5.052222   4.612082   2.531807
    40  H    8.970210  10.258586   4.315339   4.973320   3.099623
    41  H   10.751855  11.708736   6.172394   6.614813   4.839600
    42  H   10.007197  10.763260   4.921681   5.982786   4.742035
    43  H    9.746976  10.420615   5.569378   5.676106   4.379546
    44  H    8.005965   7.189056   5.309325   6.830602   8.294726
    45  H    7.316923   7.067665   5.648470   7.545374   9.181318
    46  H    2.903193   5.257997   5.177672   4.029027   5.343252
    47  H    3.663938   5.603879   3.464311   3.180621   4.428021
    48  H    3.289215   5.459359   4.260880   2.469441   3.606400
                   36         37         38         39         40
    36  H    0.000000
    37  H    3.073791   0.000000
    38  H    2.516213   1.775409   0.000000
    39  H    3.132046   2.497049   3.091361   0.000000
    40  H    2.544699   3.066477   2.511459   1.807385   0.000000
    41  H    4.861386   3.759680   3.774206   2.473478   2.488407
    42  H    4.385158   3.111542   2.538346   3.095043   2.507592
    43  H    4.737549   2.540298   3.101854   2.497962   3.077491
    44  H    7.772775   6.781510   6.166915   9.083874   8.635146
    45  H    8.184510   8.757910   7.750868  10.643903   9.817486
    46  H    5.233480   7.022620   6.963368   7.832263   7.760761
    47  H    3.881141   5.812260   5.439120   6.754828   6.414031
    48  H    3.825923   5.391706   5.560321   6.127838   6.260622
                   41         42         43         44         45
    41  H    0.000000
    42  H    1.831278   0.000000
    43  H    1.800965   1.804407   0.000000
    44  H    9.365764   7.655038   8.155291   0.000000
    45  H   11.399646   9.781698  10.605071   4.266926   0.000000
    46  H    9.956695   9.365827   9.414892   8.901028   7.528610
    47  H    8.647058   7.875280   8.144818   7.575369   6.388791
    48  H    8.334964   7.869795   7.754007   8.429792   7.904788
                   46         47         48
    46  H    0.000000
    47  H    1.789840   0.000000
    48  H    1.798656   1.819706   0.000000
 Stoichiometry    C19H17BF9NS
 Framework group  C1[X(C19H17BF9NS)]
 Deg. of freedom   138
 Full point group                 C1      NOp   1
 Largest Abelian subgroup         C1      NOp   1
 Largest concise Abelian subgroup C1      NOp   1
                         Standard orientation:                         
 ---------------------------------------------------------------------
 Center     Atomic      Atomic             Coordinates (Angstroms)
 Number     Number       Type             X           Y           Z
 ---------------------------------------------------------------------
      1          6           0       -0.799248    3.430355    2.384994
      2          7           0       -0.456192    2.235613    1.847674
      3          6           0       -1.116792    1.946618    0.689875
      4          5           0       -0.818717    0.623466   -0.087484
      5          6           0       -1.961563   -0.218102   -0.773612
      6          6           0       -3.226652   -0.171290   -0.354619
      7          6           0       -4.282794   -1.020306   -0.984693
      8          6           0       -4.111516   -2.509793   -0.635559
      9          6           0       -5.222890   -3.366511   -1.242002
     10          6           0       -5.062578   -4.835895   -0.860599
     11          6           0        0.684039    0.033513   -0.083676
     12          6           0        1.017770   -1.072368    0.724341
     13          6           0       -0.028638   -1.744153    1.624565
     14          9           0       -0.918748   -2.463990    0.857117
     15          9           0       -0.693857   -0.826710    2.389925
     16          9           0        0.587684   -2.652084    2.513842
     17          6           0        2.307836   -1.561103    0.705766
     18          6           0        3.302817   -0.979896   -0.095942
     19          6           0        4.715579   -1.517398   -0.080201
     20          9           0        4.745862   -2.870814    0.174430
     21          9           0        5.418411   -0.858347    0.925368
     22          9           0        5.372236   -1.271533   -1.266421
     23          6           0        2.986255    0.134030   -0.858818
     24          6           0        1.680397    0.655361   -0.876369
     25          6           0        1.379453    1.848869   -1.804896
     26          9           0        2.434572    2.167494   -2.604578
     27          9           0        0.273015    1.615602   -2.587330
     28          9           0        1.109130    2.948770   -0.995127
     29          6           0       -1.979029    2.977015    0.286361
     30          6           0       -2.811451    3.023072   -0.967203
     31         16           0       -1.935096    4.193527    1.411303
     32          1           0       -0.380881    3.831790    3.281789
     33          1           0       -1.653341   -0.945860   -1.528124
     34          1           0       -3.530440    0.499202    0.441857
     35          1           0       -5.281683   -0.673937   -0.654219
     36          1           0       -4.235961   -0.931803   -2.105527
     37          1           0       -4.138649   -2.609715    0.468057
     38          1           0       -3.125468   -2.880217   -0.964552
     39          1           0       -6.211983   -3.019460   -0.861848
     40          1           0       -5.193719   -3.278437   -2.332464
     41          1           0       -5.885941   -5.432502   -1.296607
     42          1           0       -4.068317   -5.223168   -1.219134
     43          1           0       -5.087493   -4.955637    0.245650
     44          1           0        2.587480   -2.411889    1.310031
     45          1           0        3.773267    0.619649   -1.448655
     46          1           0       -2.916355    4.071016   -1.318285
     47          1           0       -2.341727    2.440014   -1.779979
     48          1           0       -3.841032    2.630310   -0.766470
 ---------------------------------------------------------------------
 Rotational constants (GHZ):           0.1407571           0.0989804           0.0744011
 Leave Link  202 at Thu Jan 23 18:21:55 2025, MaxMem=  3221225472 cpu:               0.8 elap:               0.1
 (Enter /software/gaussian/G16-C.01/avx2/g16/l301.exe)
 Standard basis: def2SVP (5D, 7F)
 Ernie: Thresh=  0.10000D-02 Tol=  0.10000D-05 Strict=F.
 There are   554 symmetry adapted cartesian basis functions of A   symmetry.
 There are   523 symmetry adapted basis functions of A   symmetry.
   523 basis functions,   906 primitive gaussians,   554 cartesian basis functions
   120 alpha electrons      120 beta electrons
       nuclear repulsion energy      3500.1121422208 Hartrees.
 IExCor= 1009 DFT=T Ex+Corr=PBE1PBE ExCW=0 ScaHFX=  0.250000
 ScaDFX=  0.750000  0.750000  1.000000  1.000000 ScalE2=  1.000000  1.000000
 IRadAn=      5 IRanWt=     -1 IRanGd=            0 ICorTp=0 IEmpDi=141
 NAtoms=   48 NActive=   48 NUniq=   48 SFac= 1.00D+00 NAtFMM=   60 NAOKFM=F Big=F
 Integral buffers will be    131072 words long.
 Raffenetti 2 integral format.
 Two-electron integral symmetry is turned on.
 R6Disp:  Grimme-D3(BJ) Dispersion energy=       -0.0568824858 Hartrees.
 Nuclear repulsion after empirical dispersion term =     3500.0552597350 Hartrees.
 Leave Link  301 at Thu Jan 23 18:21:55 2025, MaxMem=  3221225472 cpu:               1.7 elap:               0.1
 (Enter /software/gaussian/G16-C.01/avx2/g16/l302.exe)
 NPDir=0 NMtPBC=     1 NCelOv=     1 NCel=       1 NClECP=     1 NCelD=      1
         NCelK=      1 NCelE2=     1 NClLst=     1 CellRange=     0.0.
 One-electron integrals computed using PRISM.
 One-electron integral symmetry used in STVInt
   1 Symmetry operations used in ECPInt.
 ECPInt:  NShTT=   28680 NPrTT=  107880 LenC2=   23473 LenP2D=   57177.
 LDataN:  DoStor=T MaxTD1= 4 Len=   56
 NBasis=   523 RedAO= T EigKep=  2.33D-04  NBF=   523
 NBsUse=   523 1.00D-06 EigRej= -1.00D+00 NBFU=   523
 Precomputing XC quadrature grid using
 IXCGrd= 4 IRadAn=           5 IRanWt=          -1 IRanGd=           0 AccXCQ= 0.00D+00.
 Generated NRdTot=       0 NPtTot=           0 NUsed=           0 NTot=          32
 NSgBfM=   544   544   544   544   544 MxSgAt=    48 MxSgA2=    48.
 Leave Link  302 at Thu Jan 23 18:21:55 2025, MaxMem=  3221225472 cpu:              14.3 elap:               0.6
 (Enter /software/gaussian/G16-C.01/avx2/g16/l303.exe)
 DipDrv:  MaxL=1.
 Leave Link  303 at Thu Jan 23 18:21:55 2025, MaxMem=  3221225472 cpu:               1.7 elap:               0.1
 (Enter /software/gaussian/G16-C.01/avx2/g16/l401.exe)
 ExpMin= 8.36D-02 ExpMax= 9.18D+03 ExpMxC= 1.38D+03 IAcc=3 IRadAn=         5 AccDes= 0.00D+00
 Harris functional with IExCor= 1009 and IRadAn=       5 diagonalized for initial guess.
 HarFok:  IExCor= 1009 AccDes= 0.00D+00 IRadAn=         5 IDoV= 1 UseB2=F ITyADJ=14
 ICtDFT=  3500011 ScaDFX=  1.000000  1.000000  1.000000  1.000000
 FoFCou: FMM=F IPFlag=           0 FMFlag=      100000 FMFlg1=           0
         NFxFlg=           0 DoJE=T BraDBF=F KetDBF=T FulRan=T
         wScrn=  0.000000 ICntrl=       500 IOpCl=  0 I1Cent=   200000004 NGrid=           0
         NMat0=    1 NMatS0=      1 NMatT0=    0 NMatD0=    1 NMtDS0=    0 NMtDT0=    0
 Petite list used in FoFCou.
 Harris En= -2107.55908824997    
 JPrj=0 DoOrth=F DoCkMO=F.
 Leave Link  401 at Thu Jan 23 18:21:57 2025, MaxMem=  3221225472 cpu:              35.3 elap:               1.5
 (Enter /software/gaussian/G16-C.01/avx2/g16/l502.exe)
 Integral symmetry usage will be decided dynamically.
 Closed shell SCF:
 Using DIIS extrapolation, IDIIS=  1040.
 NGot=  3221225472 LenX=  3220591500 LenY=  3220284030
 Requested convergence on RMS density matrix=1.00D-08 within 128 cycles.
 Requested convergence on MAX density matrix=1.00D-06.
 Requested convergence on             energy=1.00D-06.
 No special actions if energy rises.
 Fock matrices will be formed incrementally for  20 cycles.
 Integral accuracy reduced to 1.0D-05 until final iterations.

 Cycle   1  Pass 0  IDiag  1:
 FoFJK:  IHMeth= 1 ICntrl=       0 DoSepK=F KAlg= 0 I1Cent=           0 FoldK=F
 IRaf= 730000000 NMat=       1 IRICut=       1 DoRegI=T DoRafI=F ISym2E= 0 IDoP0=0 IntGTp=1.
 FoFCou: FMM=F IPFlag=           0 FMFlag=      100000 FMFlg1=           0
         NFxFlg=           0 DoJE=F BraDBF=F KetDBF=F FulRan=T
         wScrn=  0.000000 ICntrl=         0 IOpCl=  0 I1Cent=           0 NGrid=           0
         NMat0=    1 NMatS0=      1 NMatT0=    0 NMatD0=    1 NMtDS0=    0 NMtDT0=    0
 Symmetry not used in FoFCou.
 E= -2106.73782513822    
 DIIS: error= 2.49D-02 at cycle   1 NSaved=   1.
 NSaved= 1 IEnMin= 1 EnMin= -2106.73782513822     IErMin= 1 ErrMin= 2.49D-02
 ErrMax= 2.49D-02  0.00D+00 EMaxC= 1.00D-01 BMatC= 6.46D-01 BMatP= 6.46D-01
 IDIUse=3 WtCom= 7.51D-01 WtEn= 2.49D-01
 Coeff-Com:  0.100D+01
 Coeff-En:   0.100D+01
 Coeff:      0.100D+01
 Gap=     0.285 Goal=   None    Shift=    0.000
 GapD=    0.285 DampG=1.000 DampE=0.500 DampFc=0.5000 IDamp=-1.
 Damping current iteration by 5.00D-01
 RMSDP=4.12D-03 MaxDP=2.03D-01              OVMax= 3.09D-01

 Cycle   2  Pass 0  IDiag  1:
 RMSU=  2.05D-03    CP:  9.86D-01
 E= -2106.95277123624     Delta-E=       -0.214946098023 Rises=F Damp=T
 DIIS: error= 7.80D-03 at cycle   2 NSaved=   2.
 NSaved= 2 IEnMin= 2 EnMin= -2106.95277123624     IErMin= 2 ErrMin= 7.80D-03
 ErrMax= 7.80D-03  0.00D+00 EMaxC= 1.00D-01 BMatC= 5.84D-02 BMatP= 6.46D-01
 IDIUse=3 WtCom= 9.22D-01 WtEn= 7.80D-02
 Coeff-Com:  0.151D+00 0.849D+00
 Coeff-En:   0.280D+00 0.720D+00
 Coeff:      0.161D+00 0.839D+00
 Gap=     0.216 Goal=   None    Shift=    0.000
 RMSDP=1.50D-03 MaxDP=7.88D-02 DE=-2.15D-01 OVMax= 2.90D-01

 Cycle   3  Pass 0  IDiag  1:
 RMSU=  1.35D-03    CP:  9.77D-01  6.94D-01
 E= -2107.30986336415     Delta-E=       -0.357092127912 Rises=F Damp=F
 DIIS: error= 1.12D-02 at cycle   3 NSaved=   3.
 NSaved= 3 IEnMin= 3 EnMin= -2107.30986336415     IErMin= 2 ErrMin= 7.80D-03
 ErrMax= 1.12D-02  0.00D+00 EMaxC= 1.00D-01 BMatC= 6.06D-02 BMatP= 5.84D-02
 IDIUse=3 WtCom= 8.88D-01 WtEn= 1.12D-01
 Coeff-Com:  0.464D-01 0.506D+00 0.448D+00
 Coeff-En:   0.000D+00 0.000D+00 0.100D+01
 Coeff:      0.413D-01 0.449D+00 0.509D+00
 Gap=     0.184 Goal=   None    Shift=    0.000
 RMSDP=8.11D-04 MaxDP=5.30D-02 DE=-3.57D-01 OVMax= 1.06D-01

 Cycle   4  Pass 0  IDiag  1:
 RMSU=  5.65D-04    CP:  9.78D-01  8.50D-01  6.41D-01
 E= -2107.35610258360     Delta-E=       -0.046239219446 Rises=F Damp=F
 DIIS: error= 4.85D-03 at cycle   4 NSaved=   4.
 NSaved= 4 IEnMin= 4 EnMin= -2107.35610258360     IErMin= 4 ErrMin= 4.85D-03
 ErrMax= 4.85D-03  0.00D+00 EMaxC= 1.00D-01 BMatC= 1.64D-02 BMatP= 5.84D-02
 IDIUse=3 WtCom= 9.52D-01 WtEn= 4.85D-02
 Coeff-Com: -0.716D-02 0.979D-01 0.344D+00 0.565D+00
 Coeff-En:   0.000D+00 0.000D+00 0.252D+00 0.748D+00
 Coeff:     -0.681D-02 0.931D-01 0.340D+00 0.574D+00
 Gap=     0.197 Goal=   None    Shift=    0.000
 RMSDP=3.23D-04 MaxDP=1.89D-02 DE=-4.62D-02 OVMax= 3.69D-02

 Cycle   5  Pass 0  IDiag  1:
 RMSU=  1.53D-04    CP:  9.78D-01  8.00D-01  7.62D-01  6.31D-01
 E= -2107.37156844379     Delta-E=       -0.015465860187 Rises=F Damp=F
 DIIS: error= 8.01D-04 at cycle   5 NSaved=   5.
 NSaved= 5 IEnMin= 5 EnMin= -2107.37156844379     IErMin= 5 ErrMin= 8.01D-04
 ErrMax= 8.01D-04  0.00D+00 EMaxC= 1.00D-01 BMatC= 9.17D-04 BMatP= 1.64D-02
 IDIUse=3 WtCom= 9.92D-01 WtEn= 8.01D-03
 Coeff-Com: -0.618D-02 0.175D-01 0.151D+00 0.318D+00 0.521D+00
 Coeff-En:   0.000D+00 0.000D+00 0.000D+00 0.000D+00 0.100D+01
 Coeff:     -0.613D-02 0.173D-01 0.149D+00 0.315D+00 0.524D+00
 Gap=     0.181 Goal=   None    Shift=    0.000
 RMSDP=8.39D-05 MaxDP=3.70D-03 DE=-1.55D-02 OVMax= 1.02D-02

 Cycle   6  Pass 0  IDiag  1:
 RMSU=  5.90D-05    CP:  9.78D-01  8.09D-01  7.55D-01  6.82D-01  6.87D-01
 E= -2107.37236257512     Delta-E=       -0.000794131334 Rises=F Damp=F
 DIIS: error= 3.35D-04 at cycle   6 NSaved=   6.
 NSaved= 6 IEnMin= 6 EnMin= -2107.37236257512     IErMin= 6 ErrMin= 3.35D-04
 ErrMax= 3.35D-04  0.00D+00 EMaxC= 1.00D-01 BMatC= 9.76D-05 BMatP= 9.17D-04
 IDIUse=3 WtCom= 9.97D-01 WtEn= 3.35D-03
 Coeff-Com: -0.216D-02-0.228D-02 0.388D-01 0.987D-01 0.291D+00 0.576D+00
 Coeff-En:   0.000D+00 0.000D+00 0.000D+00 0.000D+00 0.710D-01 0.929D+00
 Coeff:     -0.216D-02-0.227D-02 0.387D-01 0.983D-01 0.290D+00 0.578D+00
 Gap=     0.181 Goal=   None    Shift=    0.000
 RMSDP=2.97D-05 MaxDP=1.09D-03 DE=-7.94D-04 OVMax= 3.41D-03

 Cycle   7  Pass 0  IDiag  1:
 RMSU=  1.62D-05    CP:  9.77D-01  8.06D-01  7.61D-01  6.79D-01  7.28D-01
                    CP:  6.24D-01
 E= -2107.37245523527     Delta-E=       -0.000092660151 Rises=F Damp=F
 DIIS: error= 8.49D-05 at cycle   7 NSaved=   7.
 NSaved= 7 IEnMin= 7 EnMin= -2107.37245523527     IErMin= 7 ErrMin= 8.49D-05
 ErrMax= 8.49D-05  0.00D+00 EMaxC= 1.00D-01 BMatC= 1.33D-05 BMatP= 9.76D-05
 IDIUse=1 WtCom= 1.00D+00 WtEn= 0.00D+00
 Coeff-Com: -0.723D-03-0.278D-02 0.103D-01 0.306D-01 0.127D+00 0.344D+00
 Coeff-Com:  0.491D+00
 Coeff:     -0.723D-03-0.278D-02 0.103D-01 0.306D-01 0.127D+00 0.344D+00
 Coeff:      0.491D+00
 Gap=     0.181 Goal=   None    Shift=    0.000
 RMSDP=8.47D-06 MaxDP=3.86D-04 DE=-9.27D-05 OVMax= 1.19D-03

 Initial convergence to 1.0D-05 achieved.  Increase integral accuracy.
 Cycle   8  Pass 1  IDiag  1:
 E= -2107.37249660219     Delta-E=       -0.000041366914 Rises=F Damp=F
 DIIS: error= 1.49D-04 at cycle   1 NSaved=   1.
 NSaved= 1 IEnMin= 1 EnMin= -2107.37249660219     IErMin= 1 ErrMin= 1.49D-04
 ErrMax= 1.49D-04  0.00D+00 EMaxC= 1.00D-01 BMatC= 5.26D-06 BMatP= 5.26D-06
 IDIUse=3 WtCom= 9.99D-01 WtEn= 1.49D-03
 Coeff-Com:  0.100D+01
 Coeff-En:   0.100D+01
 Coeff:      0.100D+01
 Gap=     0.181 Goal=   None    Shift=    0.000
 RMSDP=8.47D-06 MaxDP=3.86D-04 DE=-4.14D-05 OVMax= 5.45D-04

 Cycle   9  Pass 1  IDiag  1:
 RMSU=  8.49D-05    CP:  1.00D+00
 E= -2107.37250045163     Delta-E=       -0.000003849445 Rises=F Damp=F
 DIIS: error= 3.64D-05 at cycle   2 NSaved=   2.
 NSaved= 2 IEnMin= 2 EnMin= -2107.37250045163     IErMin= 2 ErrMin= 3.64D-05
 ErrMax= 3.64D-05  0.00D+00 EMaxC= 1.00D-01 BMatC= 1.36D-06 BMatP= 5.26D-06
 IDIUse=1 WtCom= 1.00D+00 WtEn= 0.00D+00
 Coeff-Com:  0.259D+00 0.741D+00
 Coeff:      0.259D+00 0.741D+00
 Gap=     0.181 Goal=   None    Shift=    0.000
 RMSDP=5.50D-06 MaxDP=2.52D-04 DE=-3.85D-06 OVMax= 8.21D-04

 Cycle  10  Pass 1  IDiag  1:
 RMSU=  5.45D-06    CP:  1.00D+00  1.01D+00
 E= -2107.37249991441     Delta-E=        0.000000537217 Rises=F Damp=F
 DIIS: error= 3.30D-05 at cycle   3 NSaved=   3.
 NSaved= 3 IEnMin= 2 EnMin= -2107.37250045163     IErMin= 3 ErrMin= 3.30D-05
 ErrMax= 3.30D-05  0.00D+00 EMaxC= 1.00D-01 BMatC= 1.81D-06 BMatP= 1.36D-06
 IDIUse=1 WtCom= 1.00D+00 WtEn= 0.00D+00
 Coeff-Com:  0.715D-02 0.534D+00 0.459D+00
 Coeff:      0.715D-02 0.534D+00 0.459D+00
 Gap=     0.181 Goal=   None    Shift=    0.000
 RMSDP=3.27D-06 MaxDP=1.48D-04 DE= 5.37D-07 OVMax= 4.77D-04

 Cycle  11  Pass 1  IDiag  1:
 RMSU=  1.08D-06    CP:  1.00D+00  1.01D+00  4.43D-01
 E= -2107.37250178406     Delta-E=       -0.000001869646 Rises=F Damp=F
 DIIS: error= 6.30D-06 at cycle   4 NSaved=   4.
 NSaved= 4 IEnMin= 4 EnMin= -2107.37250178406     IErMin= 4 ErrMin= 6.30D-06
 ErrMax= 6.30D-06  0.00D+00 EMaxC= 1.00D-01 BMatC= 5.77D-08 BMatP= 1.36D-06
 IDIUse=1 WtCom= 1.00D+00 WtEn= 0.00D+00
 Coeff-Com: -0.359D-02 0.312D+00 0.286D+00 0.405D+00
 Coeff:     -0.359D-02 0.312D+00 0.286D+00 0.405D+00
 Gap=     0.181 Goal=   None    Shift=    0.000
 RMSDP=6.11D-07 MaxDP=3.42D-05 DE=-1.87D-06 OVMax= 6.42D-05

 Cycle  12  Pass 1  IDiag  1:
 RMSU=  2.46D-07    CP:  1.00D+00  1.01D+00  4.77D-01  5.12D-01
 E= -2107.37250183860     Delta-E=       -0.000000054538 Rises=F Damp=F
 DIIS: error= 1.70D-06 at cycle   5 NSaved=   5.
 NSaved= 5 IEnMin= 5 EnMin= -2107.37250183860     IErMin= 5 ErrMin= 1.70D-06
 ErrMax= 1.70D-06  0.00D+00 EMaxC= 1.00D-01 BMatC= 1.80D-09 BMatP= 5.77D-08
 IDIUse=1 WtCom= 1.00D+00 WtEn= 0.00D+00
 Coeff-Com: -0.242D-02 0.160D+00 0.148D+00 0.238D+00 0.457D+00
 Coeff:     -0.242D-02 0.160D+00 0.148D+00 0.238D+00 0.457D+00
 Gap=     0.181 Goal=   None    Shift=    0.000
 RMSDP=1.18D-07 MaxDP=8.01D-06 DE=-5.45D-08 OVMax= 1.28D-05

 Cycle  13  Pass 1  IDiag  1:
 RMSU=  9.07D-08    CP:  1.00D+00  1.01D+00  4.73D-01  5.20D-01  7.13D-01
 E= -2107.37250184024     Delta-E=       -0.000000001643 Rises=F Damp=F
 DIIS: error= 4.42D-07 at cycle   6 NSaved=   6.
 NSaved= 6 IEnMin= 6 EnMin= -2107.37250184024     IErMin= 6 ErrMin= 4.42D-07
 ErrMax= 4.42D-07  0.00D+00 EMaxC= 1.00D-01 BMatC= 1.24D-10 BMatP= 1.80D-09
 IDIUse=1 WtCom= 1.00D+00 WtEn= 0.00D+00
 Coeff-Com: -0.949D-03 0.559D-01 0.515D-01 0.907D-01 0.247D+00 0.556D+00
 Coeff:     -0.949D-03 0.559D-01 0.515D-01 0.907D-01 0.247D+00 0.556D+00
 Gap=     0.181 Goal=   None    Shift=    0.000
 RMSDP=3.08D-08 MaxDP=1.91D-06 DE=-1.64D-09 OVMax= 4.13D-06

 Cycle  14  Pass 1  IDiag  1:
 RMSU=  2.62D-08    CP:  1.00D+00  1.01D+00  4.72D-01  5.19D-01  7.53D-01
                    CP:  8.68D-01
 E= -2107.37250184037     Delta-E=       -0.000000000133 Rises=F Damp=F
 DIIS: error= 1.12D-07 at cycle   7 NSaved=   7.
 NSaved= 7 IEnMin= 7 EnMin= -2107.37250184037     IErMin= 7 ErrMin= 1.12D-07
 ErrMax= 1.12D-07  0.00D+00 EMaxC= 1.00D-01 BMatC= 1.32D-11 BMatP= 1.24D-10
 IDIUse=1 WtCom= 1.00D+00 WtEn= 0.00D+00
 Coeff-Com: -0.939D-04 0.303D-02 0.245D-02 0.776D-02 0.408D-01 0.272D+00
 Coeff-Com:  0.674D+00
 Coeff:     -0.939D-04 0.303D-02 0.245D-02 0.776D-02 0.408D-01 0.272D+00
 Coeff:      0.674D+00
 Gap=     0.181 Goal=   None    Shift=    0.000
 RMSDP=1.06D-08 MaxDP=7.23D-07 DE=-1.33D-10 OVMax= 1.08D-06

 Cycle  15  Pass 1  IDiag  1:
 RMSU=  7.72D-09    CP:  1.00D+00  1.01D+00  4.72D-01  5.23D-01  7.57D-01
                    CP:  9.13D-01  8.81D-01
 E= -2107.37250184034     Delta-E=        0.000000000033 Rises=F Damp=F
 DIIS: error= 3.52D-08 at cycle   8 NSaved=   8.
 NSaved= 8 IEnMin= 7 EnMin= -2107.37250184037     IErMin= 8 ErrMin= 3.52D-08
 ErrMax= 3.52D-08  0.00D+00 EMaxC= 1.00D-01 BMatC= 1.34D-12 BMatP= 1.32D-11
 IDIUse=1 WtCom= 1.00D+00 WtEn= 0.00D+00
 Coeff-Com:  0.832D-04-0.607D-02-0.585D-02-0.852D-02-0.151D-01 0.655D-01
 Coeff-Com:  0.318D+00 0.652D+00
 Coeff:      0.832D-04-0.607D-02-0.585D-02-0.852D-02-0.151D-01 0.655D-01
 Coeff:      0.318D+00 0.652D+00
 Gap=     0.181 Goal=   None    Shift=    0.000
 RMSDP=3.41D-09 MaxDP=1.39D-07 DE= 3.27D-11 OVMax= 4.45D-07

 SCF Done:  E(RPBE1PBE) =  -2107.37250184     A.U. after   15 cycles
            NFock= 15  Conv=0.34D-08     -V/T= 2.0070
 KE= 2.092685762662D+03 PE=-1.196550064226D+04 EE= 4.265387118026D+03
 Leave Link  502 at Thu Jan 23 18:22:48 2025, MaxMem=  3221225472 cpu:            1211.6 elap:              50.7
 (Enter /software/gaussian/G16-C.01/avx2/g16/l601.exe)
 Copying SCF densities to generalized density rwf, IOpCl= 0 IROHF=0.

 **********************************************************************

            Population analysis using the SCF Density.

 **********************************************************************

 Orbital symmetries:
       Occupied  (A) (A) (A) (A) (A) (A) (A) (A) (A) (A) (A) (A)
                 (A) (A) (A) (A) (A) (A) (A) (A) (A) (A) (A) (A)
                 (A) (A) (A) (A) (A) (A) (A) (A) (A) (A) (A) (A)
                 (A) (A) (A) (A) (A) (A) (A) (A) (A) (A) (A) (A)
                 (A) (A) (A) (A) (A) (A) (A) (A) (A) (A) (A) (A)
                 (A) (A) (A) (A) (A) (A) (A) (A) (A) (A) (A) (A)
                 (A) (A) (A) (A) (A) (A) (A) (A) (A) (A) (A) (A)
                 (A) (A) (A) (A) (A) (A) (A) (A) (A) (A) (A) (A)
                 (A) (A) (A) (A) (A) (A) (A) (A) (A) (A) (A) (A)
                 (A) (A) (A) (A) (A) (A) (A) (A) (A) (A) (A) (A)
       Virtual   (A) (A) (A) (A) (A) (A) (A) (A) (A) (A) (A) (A)
                 (A) (A) (A) (A) (A) (A) (A) (A) (A) (A) (A) (A)
                 (A) (A) (A) (A) (A) (A) (A) (A) (A) (A) (A) (A)
                 (A) (A) (A) (A) (A) (A) (A) (A) (A) (A) (A) (A)
                 (A) (A) (A) (A) (A) (A) (A) (A) (A) (A) (A) (A)
                 (A) (A) (A) (A) (A) (A) (A) (A) (A) (A) (A) (A)
                 (A) (A) (A) (A) (A) (A) (A) (A) (A) (A) (A) (A)
                 (A) (A) (A) (A) (A) (A) (A) (A) (A) (A) (A) (A)
                 (A) (A) (A) (A) (A) (A) (A) (A) (A) (A) (A) (A)
                 (A) (A) (A) (A) (A) (A) (A) (A) (A) (A) (A) (A)
                 (A) (A) (A) (A) (A) (A) (A) (A) (A) (A) (A) (A)
                 (A) (A) (A) (A) (A) (A) (A) (A) (A) (A) (A) (A)
                 (A) (A) (A) (A) (A) (A) (A) (A) (A) (A) (A) (A)
                 (A) (A) (A) (A) (A) (A) (A) (A) (A) (A) (A) (A)
                 (A) (A) (A) (A) (A) (A) (A) (A) (A) (A) (A) (A)
                 (A) (A) (A) (A) (A) (A) (A) (A) (A) (A) (A) (A)
                 (A) (A) (A) (A) (A) (A) (A) (A) (A) (A) (A) (A)
                 (A) (A) (A) (A) (A) (A) (A) (A) (A) (A) (A) (A)
                 (A) (A) (A) (A) (A) (A) (A) (A) (A) (A) (A) (A)
                 (A) (A) (A) (A) (A) (A) (A) (A) (A) (A) (A) (A)
                 (A) (A) (A) (A) (A) (A) (A) (A) (A) (A) (A) (A)
                 (A) (A) (A) (A) (A) (A) (A) (A) (A) (A) (A) (A)
                 (A) (A) (A) (A) (A) (A) (A) (A) (A) (A) (A) (A)
                 (A) (A) (A) (A) (A) (A) (A) (A) (A) (A) (A) (A)
                 (A) (A) (A) (A) (A) (A) (A) (A) (A) (A) (A) (A)
                 (A) (A) (A) (A) (A) (A) (A) (A) (A) (A) (A) (A)
                 (A) (A) (A) (A) (A) (A) (A) (A) (A) (A) (A) (A)
                 (A) (A) (A) (A) (A) (A) (A) (A) (A) (A) (A) (A)
                 (A) (A) (A) (A) (A) (A) (A) (A) (A) (A) (A) (A)
                 (A) (A) (A) (A) (A) (A) (A) (A) (A) (A) (A) (A)
                 (A) (A) (A) (A) (A) (A) (A) (A) (A) (A) (A) (A)
                 (A) (A) (A) (A) (A) (A) (A) (A) (A) (A) (A) (A)
                 (A) (A) (A) (A) (A) (A) (A) (A) (A) (A) (A) (A)
                 (A) (A) (A) (A) (A) (A) (A)
 The electronic state is 1-A.
 Alpha  occ. eigenvalues --  -89.04962 -24.82945 -24.82826 -24.81853 -24.81846
 Alpha  occ. eigenvalues --  -24.81693 -24.81602 -24.80828 -24.80720 -24.80457
 Alpha  occ. eigenvalues --  -14.39321 -10.50576 -10.50052 -10.49858 -10.29441
 Alpha  occ. eigenvalues --  -10.29282 -10.29110 -10.28688 -10.28528 -10.28250
 Alpha  occ. eigenvalues --  -10.28006 -10.27786 -10.25919 -10.25791 -10.25269
 Alpha  occ. eigenvalues --  -10.24538 -10.23800 -10.23445 -10.23007 -10.22488
 Alpha  occ. eigenvalues --   -8.05361  -6.80690  -5.99425  -5.99041  -5.98901
 Alpha  occ. eigenvalues --   -1.32789  -1.31560  -1.31448  -1.25298  -1.24079
 Alpha  occ. eigenvalues --   -1.24005  -1.23431  -1.22835  -1.22540  -0.98543
 Alpha  occ. eigenvalues --   -0.92632  -0.84285  -0.84160  -0.83709  -0.83477
 Alpha  occ. eigenvalues --   -0.79939  -0.78474  -0.74176  -0.73553  -0.73217
 Alpha  occ. eigenvalues --   -0.72577  -0.71181  -0.66801  -0.66384  -0.65527
 Alpha  occ. eigenvalues --   -0.63384  -0.62171  -0.61334  -0.60990  -0.60787
 Alpha  occ. eigenvalues --   -0.60499  -0.60251  -0.60168  -0.59614  -0.58504
 Alpha  occ. eigenvalues --   -0.57318  -0.56032  -0.55350  -0.53538  -0.51838
 Alpha  occ. eigenvalues --   -0.51086  -0.50158  -0.49616  -0.49488  -0.48813
 Alpha  occ. eigenvalues --   -0.48615  -0.48455  -0.48330  -0.48240  -0.46681
 Alpha  occ. eigenvalues --   -0.46429  -0.46026  -0.45630  -0.45503  -0.45352
 Alpha  occ. eigenvalues --   -0.45330  -0.44966  -0.44602  -0.44523  -0.44005
 Alpha  occ. eigenvalues --   -0.43864  -0.43445  -0.43357  -0.43149  -0.42846
 Alpha  occ. eigenvalues --   -0.41973  -0.41679  -0.41373  -0.40981  -0.40848
 Alpha  occ. eigenvalues --   -0.39611  -0.39321  -0.38695  -0.36630  -0.36079
 Alpha  occ. eigenvalues --   -0.35155  -0.34861  -0.34204  -0.33333  -0.31099
 Alpha  occ. eigenvalues --   -0.30122  -0.29610  -0.28492  -0.27414  -0.25787
 Alpha virt. eigenvalues --   -0.07725  -0.05745  -0.05293  -0.02318   0.01952
 Alpha virt. eigenvalues --    0.05037   0.06193   0.06492   0.06883   0.08285
 Alpha virt. eigenvalues --    0.08575   0.09467   0.09544   0.09875   0.10605
 Alpha virt. eigenvalues --    0.10701   0.11155   0.11875   0.12626   0.13415
 Alpha virt. eigenvalues --    0.13662   0.13975   0.14419   0.15032   0.15548
 Alpha virt. eigenvalues --    0.16126   0.16332   0.16503   0.16856   0.17039
 Alpha virt. eigenvalues --    0.17539   0.18090   0.18264   0.18779   0.19070
 Alpha virt. eigenvalues --    0.20106   0.20945   0.21743   0.22619   0.23141
 Alpha virt. eigenvalues --    0.24463   0.25384   0.25671   0.26053   0.26290
 Alpha virt. eigenvalues --    0.27463   0.29343   0.29550   0.30490   0.31922
 Alpha virt. eigenvalues --    0.32546   0.33436   0.34097   0.34326   0.35546
 Alpha virt. eigenvalues --    0.36357   0.37878   0.38195   0.39984   0.40512
 Alpha virt. eigenvalues --    0.41141   0.41806   0.43063   0.43113   0.43672
 Alpha virt. eigenvalues --    0.43993   0.44245   0.44534   0.44771   0.45545
 Alpha virt. eigenvalues --    0.45978   0.46336   0.46870   0.47322   0.47837
 Alpha virt. eigenvalues --    0.49019   0.49705   0.50056   0.50764   0.51391
 Alpha virt. eigenvalues --    0.51813   0.52234   0.52595   0.53833   0.54267
 Alpha virt. eigenvalues --    0.55462   0.56457   0.57024   0.59318   0.59805
 Alpha virt. eigenvalues --    0.60526   0.61037   0.61672   0.62204   0.63081
 Alpha virt. eigenvalues --    0.63584   0.63923   0.64525   0.64646   0.65048
 Alpha virt. eigenvalues --    0.65200   0.65893   0.66198   0.66532   0.66832
 Alpha virt. eigenvalues --    0.67077   0.67391   0.67999   0.68206   0.68712
 Alpha virt. eigenvalues --    0.69304   0.69410   0.69521   0.69991   0.70128
[...]
    23  C   -0.104495   0.032844   0.005878   0.005621  -0.000222   0.000010
    24  C    0.352730  -0.128396  -0.044949  -0.078532  -0.010062   0.000220
    25  C    4.256729   0.392679   0.337055   0.374237   0.001280   0.000292
    26  F    0.392679   8.958781  -0.050431  -0.055142   0.000015   0.000008
    27  F    0.337055  -0.050431   8.975749  -0.049352   0.000510   0.001085
    28  F    0.374237  -0.055142  -0.049352   8.957221   0.007397  -0.000291
    29  C    0.001280   0.000015   0.000510   0.007397   5.092417   0.268173
    30  C    0.000292   0.000008   0.001085  -0.000291   0.268173   4.975071
    31  S   -0.000159   0.000001   0.000019  -0.000040   0.416005  -0.057162
    32  H    0.000168   0.000000  -0.000002   0.000014   0.006761   0.000135
    33  H    0.000864   0.000002  -0.000920  -0.000008  -0.000875   0.000424
    34  H    0.000048   0.000000  -0.000011  -0.000001  -0.000435   0.000815
    35  H    0.000000   0.000000   0.000001  -0.000000  -0.000353   0.000522
    36  H    0.000001  -0.000000  -0.000002  -0.000000  -0.000032   0.000024
    37  H    0.000000  -0.000000   0.000000   0.000000  -0.000005  -0.000011
    38  H    0.000001   0.000000   0.000000  -0.000000  -0.000028   0.000010
    39  H   -0.000000   0.000000   0.000000  -0.000000  -0.000001   0.000001
    40  H    0.000000  -0.000000   0.000000   0.000000   0.000000  -0.000000
    41  H   -0.000000  -0.000000  -0.000000  -0.000000  -0.000000   0.000000
    42  H   -0.000000  -0.000000   0.000000  -0.000000  -0.000000   0.000000
    43  H    0.000000   0.000000   0.000000   0.000000   0.000000  -0.000000
    44  H    0.000072   0.000001  -0.000000  -0.000000   0.000002   0.000000
    45  H   -0.012914   0.010865   0.000314  -0.000409   0.000003  -0.000000
    46  H   -0.000128   0.000001  -0.000049   0.000012  -0.029413   0.391390
    47  H    0.000100   0.000006   0.000328   0.000040  -0.041492   0.424734
    48  H    0.000005  -0.000000   0.000025  -0.000001  -0.030936   0.402892
              31         32         33         34         35         36
     1  C    0.409454   0.405556   0.000024   0.000270   0.000001   0.000000
     2  N   -0.078456  -0.035886  -0.000128  -0.000417   0.000002  -0.000001
     3  C   -0.082928   0.010845   0.005352   0.005960   0.000162   0.000070
     4  B    0.038040  -0.007371  -0.033417  -0.016814   0.000639  -0.001332
     5  C    0.000226   0.000009   0.393814  -0.029453  -0.001584   0.007805
     6  C   -0.000363  -0.000012  -0.057672   0.385410  -0.024201  -0.051272
     7  C    0.000007  -0.000000  -0.001681  -0.049354   0.396160   0.405779
     8  C   -0.000002  -0.000000  -0.001774   0.000114  -0.044197  -0.026774
     9  C    0.000000  -0.000000   0.000064  -0.000226  -0.003285  -0.005350
    10  C   -0.000000  -0.000000   0.000008   0.000046  -0.000142   0.000202
    11  C   -0.001884   0.000658   0.000877   0.001559  -0.000056   0.000125
    12  C   -0.000010   0.000061   0.001427  -0.000361   0.000016  -0.000046
    13  C   -0.000066   0.000017  -0.000059  -0.000133  -0.000034   0.000010
    14  F   -0.000000   0.000000  -0.000294  -0.000126  -0.000002  -0.000093
    15  F   -0.000011   0.000012  -0.000062  -0.000426  -0.000009   0.000019
    16  F    0.000000   0.000000   0.000015   0.000001  -0.000000  -0.000000
    17  C   -0.000004  -0.000006  -0.000025   0.000009   0.000000   0.000001
    18  C    0.000002   0.000002  -0.000083  -0.000002  -0.000000  -0.000000
    19  C    0.000000  -0.000000  -0.000001  -0.000000  -0.000000   0.000000
    20  F    0.000000  -0.000000  -0.000000   0.000000   0.000000   0.000000
    21  F   -0.000000  -0.000000  -0.000000  -0.000000  -0.000000   0.000000
    22  F    0.000000  -0.000000  -0.000000  -0.000000   0.000000  -0.000000
    23  C   -0.000025  -0.000018  -0.000240   0.000003   0.000000   0.000000
    24  C   -0.000350  -0.000007   0.004013   0.000177   0.000004   0.000003
    25  C   -0.000159   0.000168   0.000864   0.000048   0.000000   0.000001
    26  F    0.000001   0.000000   0.000002   0.000000   0.000000  -0.000000
    27  F    0.000019  -0.000002  -0.000920  -0.000011   0.000001  -0.000002
    28  F   -0.000040   0.000014  -0.000008  -0.000001  -0.000000  -0.000000
    29  C    0.416005   0.006761  -0.000875  -0.000435  -0.000353  -0.000032
    30  C   -0.057162   0.000135   0.000424   0.000815   0.000522   0.000024
    31  S   15.383744  -0.057689   0.000022   0.000334   0.000002   0.000000
    32  H   -0.057689   0.522190  -0.000000   0.000001  -0.000000   0.000000
    33  H    0.000022  -0.000000   0.567727   0.008396   0.000635   0.005937
    34  H    0.000334   0.000001   0.008396   0.559069  -0.002226   0.006158
    35  H    0.000002  -0.000000   0.000635  -0.002226   0.591014  -0.026394
    36  H    0.000000   0.000000   0.005937   0.006158  -0.026394   0.567782
    37  H   -0.000000   0.000000   0.000131   0.002594  -0.005268   0.007129
    38  H    0.000000  -0.000000   0.000576   0.000575   0.008021  -0.004666
    39  H    0.000000   0.000000   0.000006   0.000109   0.004461   0.000072
    40  H    0.000000  -0.000000  -0.000003  -0.000025  -0.000123   0.004108
    41  H    0.000000  -0.000000  -0.000000  -0.000001   0.000011  -0.000006
    42  H   -0.000000   0.000000   0.000000   0.000008  -0.000019   0.000089
    43  H   -0.000000  -0.000000  -0.000000  -0.000014   0.000085  -0.000017
    44  H    0.000000   0.000000   0.000007   0.000000   0.000000   0.000000
    45  H    0.000000  -0.000000   0.000000  -0.000000   0.000000   0.000000
    46  H   -0.005775  -0.000017   0.000006   0.000320  -0.000026   0.000002
    47  H    0.004714   0.000012  -0.000014  -0.001182  -0.000107  -0.000037
    48  H   -0.001543  -0.000005  -0.000035  -0.001542   0.000262   0.000001
              37         38         39         40         41         42
     1  C    0.000001   0.000000   0.000000   0.000000   0.000000  -0.000000
     2  N   -0.000000   0.000003   0.000000   0.000000   0.000000   0.000000
     3  C    0.000020   0.000000   0.000000  -0.000000  -0.000000   0.000000
     4  B    0.000364   0.000018  -0.000027   0.000043   0.000000  -0.000010
     5  C    0.002235  -0.000625  -0.000089  -0.000011   0.000003  -0.000008
     6  C   -0.002198  -0.001331  -0.000182   0.001004   0.000026  -0.000014
     7  C   -0.041909  -0.031263  -0.004407  -0.005566  -0.000684  -0.000150
     8  C    0.405460   0.401506  -0.038393  -0.037266   0.011356  -0.004568
     9  C   -0.038339  -0.031728   0.404961   0.404412  -0.039757  -0.037353
    10  C   -0.002575  -0.005402  -0.033384  -0.032291   0.409600   0.409176
    11  C    0.000028  -0.000138  -0.000000  -0.000000  -0.000000   0.000000
    12  C   -0.000005   0.000661   0.000000   0.000000  -0.000000   0.000001
    13  C   -0.000004  -0.000249  -0.000000  -0.000000  -0.000000   0.000004
    14  F    0.000018   0.005456  -0.000001   0.000004  -0.000000   0.000001
    15  F    0.000039   0.000441  -0.000000  -0.000000   0.000000  -0.000001
    16  F    0.000001  -0.000024   0.000000   0.000000  -0.000000   0.000000
    17  C   -0.000001  -0.000011   0.000000   0.000000  -0.000000   0.000000
    18  C   -0.000000  -0.000001  -0.000000  -0.000000  -0.000000  -0.000000
    19  C    0.000000   0.000000   0.000000  -0.000000  -0.000000   0.000000
    20  F    0.000000  -0.000000   0.000000  -0.000000  -0.000000   0.000000
    21  F    0.000000   0.000000  -0.000000   0.000000   0.000000  -0.000000
    22  F    0.000000   0.000000  -0.000000  -0.000000  -0.000000   0.000000
    23  C   -0.000000   0.000000  -0.000000   0.000000   0.000000  -0.000000
    24  C    0.000001   0.000016   0.000000   0.000000  -0.000000   0.000000
    25  C    0.000000   0.000001  -0.000000   0.000000  -0.000000  -0.000000
    26  F   -0.000000   0.000000   0.000000  -0.000000  -0.000000  -0.000000
    27  F    0.000000   0.000000   0.000000   0.000000  -0.000000   0.000000
    28  F    0.000000  -0.000000  -0.000000   0.000000  -0.000000  -0.000000
    29  C   -0.000005  -0.000028  -0.000001   0.000000  -0.000000  -0.000000
    30  C   -0.000011   0.000010   0.000001  -0.000000   0.000000   0.000000
    31  S   -0.000000   0.000000   0.000000   0.000000   0.000000  -0.000000
    32  H    0.000000  -0.000000   0.000000  -0.000000  -0.000000   0.000000
    33  H    0.000131   0.000576   0.000006  -0.000003  -0.000000   0.000000
    34  H    0.002594   0.000575   0.000109  -0.000025  -0.000001   0.000008
    35  H   -0.005268   0.008021   0.004461  -0.000123   0.000011  -0.000019
    36  H    0.007129  -0.004666   0.000072   0.004108  -0.000006   0.000089
    37  H    0.591594  -0.027036  -0.006706   0.008831  -0.000140  -0.000167
    38  H   -0.027036   0.560153   0.008251  -0.006731  -0.000075   0.004169
    39  H   -0.006706   0.008251   0.607654  -0.034506  -0.004491   0.008121
    40  H    0.008831  -0.006731  -0.034506   0.602401  -0.004569  -0.005859
    41  H   -0.000140  -0.000075  -0.004491  -0.004569   0.548839  -0.023664
    42  H   -0.000167   0.004169   0.008121  -0.005859  -0.023664   0.557595
    43  H    0.004393  -0.000167  -0.006097   0.008100  -0.024119  -0.026912
    44  H    0.000000  -0.000001  -0.000000   0.000000  -0.000000   0.000000
    45  H   -0.000000   0.000000   0.000000  -0.000000   0.000000  -0.000000
    46  H   -0.000000  -0.000000   0.000000  -0.000000  -0.000000   0.000000
    47  H    0.000002  -0.000003   0.000000   0.000000  -0.000000   0.000000
    48  H    0.000001   0.000002  -0.000000   0.000000   0.000000  -0.000000
              43         44         45         46         47         48
     1  C    0.000000   0.000000  -0.000002   0.000560  -0.000308   0.000117
     2  N    0.000000  -0.000004   0.000018  -0.000133   0.000085  -0.000176
     3  C   -0.000000   0.000048  -0.000007   0.003578  -0.005530  -0.008878
     4  B    0.000007  -0.000969  -0.000521  -0.002218   0.001280   0.002743
     5  C   -0.000008   0.000038   0.000037   0.000311   0.001446  -0.000767
     6  C    0.000074   0.000002   0.000000   0.001511  -0.002488   0.001096
     7  C    0.000030  -0.000000  -0.000000   0.000044   0.000431  -0.000422
     8  C   -0.005242   0.000000  -0.000000   0.000003   0.000067   0.000003
     9  C   -0.036608   0.000000   0.000000  -0.000000  -0.000002  -0.000001
    10  C    0.406504  -0.000000  -0.000000   0.000000   0.000000   0.000000
    11  C   -0.000000   0.014195   0.013845  -0.000090   0.000489  -0.000063
    12  C    0.000000  -0.056594  -0.003603  -0.000007   0.000029   0.000009
    13  C    0.000001  -0.012907   0.000092   0.000002   0.000003   0.000002
    14  F    0.000000  -0.000226   0.000001   0.000000   0.000001   0.000000
    15  F   -0.000000   0.000293  -0.000000   0.000000  -0.000001   0.000002
    16  F   -0.000000   0.010810   0.000001   0.000000   0.000000   0.000000
    17  C   -0.000000   0.444742   0.012794   0.000000   0.000000   0.000000
    18  C   -0.000000  -0.064453  -0.061499   0.000000   0.000001  -0.000000
    19  C   -0.000000  -0.006510  -0.006996  -0.000000   0.000000  -0.000000
    20  F   -0.000000   0.009729   0.000334  -0.000000  -0.000000   0.000000
    21  F    0.000000   0.000311   0.000249   0.000000   0.000000  -0.000000
    22  F   -0.000000   0.000334   0.010213  -0.000000  -0.000000   0.000000
    23  C    0.000000   0.013475   0.444676   0.000000  -0.000013   0.000000
    24  C    0.000000  -0.003652  -0.058095   0.000081  -0.000187  -0.000039
    25  C    0.000000   0.000072  -0.012914  -0.000128   0.000100   0.000005
    26  F    0.000000   0.000001   0.010865   0.000001   0.000006  -0.000000
    27  F    0.000000  -0.000000   0.000314  -0.000049   0.000328   0.000025
    28  F    0.000000  -0.000000  -0.000409   0.000012   0.000040  -0.000001
    29  C    0.000000   0.000002   0.000003  -0.029413  -0.041492  -0.030936
    30  C   -0.000000   0.000000  -0.000000   0.391390   0.424734   0.402892
    31  S   -0.000000   0.000000   0.000000  -0.005775   0.004714  -0.001543
    32  H   -0.000000   0.000000  -0.000000  -0.000017   0.000012  -0.000005
    33  H   -0.000000   0.000007   0.000000   0.000006  -0.000014  -0.000035
    34  H   -0.000014   0.000000  -0.000000   0.000320  -0.001182  -0.001542
    35  H    0.000085   0.000000   0.000000  -0.000026  -0.000107   0.000262
    36  H   -0.000017   0.000000   0.000000   0.000002  -0.000037   0.000001
    37  H    0.004393   0.000000  -0.000000  -0.000000   0.000002   0.000001
    38  H   -0.000167  -0.000001   0.000000  -0.000000  -0.000003   0.000002
    39  H   -0.006097  -0.000000   0.000000   0.000000   0.000000  -0.000000
    40  H    0.008100   0.000000  -0.000000  -0.000000   0.000000   0.000000
    41  H   -0.024119  -0.000000   0.000000  -0.000000  -0.000000   0.000000
    42  H   -0.026912   0.000000  -0.000000   0.000000   0.000000  -0.000000
    43  H    0.564513   0.000000  -0.000000  -0.000000   0.000000   0.000000
    44  H    0.000000   0.490819  -0.000060  -0.000000  -0.000000   0.000000
    45  H   -0.000000  -0.000060   0.489827  -0.000000  -0.000000   0.000000
    46  H   -0.000000  -0.000000  -0.000000   0.534700  -0.014163  -0.028136
    47  H    0.000000  -0.000000  -0.000000  -0.014163   0.488200  -0.021615
    48  H    0.000000   0.000000   0.000000  -0.028136  -0.021615   0.548668
 Mulliken charges:
               1
     1  C   -0.092901
     2  N   -0.195507
     3  C    0.056055
     4  B   -0.064787
     5  C   -0.323653
     6  C    0.076512
     7  C   -0.157912
     8  C   -0.263444
     9  C   -0.160620
    10  C   -0.359585
    11  C   -0.022736
    12  C    0.095149
    13  C    0.498641
    14  F   -0.162218
    15  F   -0.148180
    16  F   -0.157584
    17  C   -0.367939
    18  C    0.196374
    19  C    0.442015
    20  F   -0.159900
    21  F   -0.153428
    22  F   -0.159990
    23  C   -0.369576
    24  C    0.109557
    25  C    0.479830
    26  F   -0.156227
    27  F   -0.157214
    28  F   -0.147656
    29  C   -0.010749
    30  C   -0.354281
    31  S    0.033895
    32  H    0.154573
    33  H    0.106965
    34  H    0.130771
    35  H    0.106025
    36  H    0.110706
    37  H    0.101522
    38  H    0.119619
    39  H    0.094648
    40  H    0.098049
    41  H    0.127670
    42  H    0.119561
    43  H    0.115477
    44  H    0.160497
    45  H    0.160836
    46  H    0.147634
    47  H    0.165172
    48  H    0.138331
 Sum of Mulliken charges =  -0.00000
 Mulliken charges with hydrogens summed into heavy atoms:
               1
     1  C    0.061672
     2  N   -0.195507
     3  C    0.056055
     4  B   -0.064787
     5  C   -0.216687
     6  C    0.207283
     7  C    0.058818
     8  C   -0.042303
     9  C    0.032077
    10  C    0.003124
    11  C   -0.022736
    12  C    0.095149
    13  C    0.498641
    14  F   -0.162218
    15  F   -0.148180
    16  F   -0.157584
    17  C   -0.207442
    18  C    0.196374
    19  C    0.442015
    20  F   -0.159900
    21  F   -0.153428
    22  F   -0.159990
    23  C   -0.208740
    24  C    0.109557
    25  C    0.479830
    26  F   -0.156227
    27  F   -0.157214
    28  F   -0.147656
    29  C   -0.010749
    30  C    0.096856
    31  S    0.033895
 Electronic spatial extent (au):  <R**2>=          14839.5632
 Charge=             -0.0000 electrons
 Dipole moment (field-independent basis, Debye):
    X=             -3.6353    Y=              1.3762    Z=             -0.7145  Tot=              3.9522
 Quadrupole moment (field-independent basis, Debye-Ang):
   XX=           -179.3199   YY=           -179.2190   ZZ=           -181.9556
   XY=             -0.7192   XZ=              3.1608   YZ=              5.1625
 Traceless Quadrupole moment (field-independent basis, Debye-Ang):
   XX=              0.8449   YY=              0.9458   ZZ=             -1.7907
   XY=             -0.7192   XZ=              3.1608   YZ=              5.1625
 Octapole moment (field-independent basis, Debye-Ang**2):
  XXX=              3.5617  YYY=             -0.7403  ZZZ=             16.3791  XYY=             11.2853
  XXY=             15.5727  XXZ=            -15.8377  XZZ=             35.1023  YZZ=              5.2729
  YYZ=             12.3029  XYZ=             -0.6616
 Hexadecapole moment (field-independent basis, Debye-Ang**3):
 XXXX=         -10540.9030 YYYY=          -6074.0648 ZZZZ=          -1792.4949 XXXY=             55.1781
 XXXZ=            -56.3959 YYYX=           -152.8020 YYYZ=            -69.9331 ZZZX=            -49.3152
 ZZZY=            -21.7675 XXYY=          -2776.8561 XXZZ=          -2078.3268 YYZZ=          -1259.9069
 XXYZ=            -41.8898 YYXZ=             38.4816 ZZXY=            -28.2738
 N-N= 3.532705653409D+03 E-N=-1.204317698631D+04  KE= 2.101868276583D+03
 No NMR shielding tensors so no spin-rotation constants.
 Leave Link  601 at Thu Jan 23 19:03:21 2025, MaxMem=  3221225472 cpu:              16.3 elap:               0.8
 (Enter /software/gaussian/G16-C.01/avx2/g16/l9999.exe)
 Unable to Open any file for archive entry.
 1\1\GINC-NODE31\SP\RPBE1PBE\def2TZVP\C19H17B1F9N1S1\LAPLAZA\23-Jan-202
 5\0\\#p def2tzvp pbe1pbe integral=ultrafinegrid geom=allcheck guess=re
 ad em=gd3bj\\neutral\\0,1\C,0,-1.853078853,-3.1418191678,2.4792549005\
 N,0,-1.6388302708,-1.978795067,1.9687210431\C,0,-1.0002677575,-2.05884
 1814,0.7438374549\B,0,-0.7314475712,-0.7315192638,-0.0231331704\C,0,0.
 4704643674,-0.4608824375,-0.9485568188\C,0,1.675272744,-1.0146813368,-
 0.7105361902\C,0,2.960482683,-0.6094025768,-1.3454872874\C,0,3.8692581
 323,0.129827226,-0.359334378\C,0,5.1965268736,0.5593131508,-0.96781612
 93\C,0,6.0895911565,1.3030751598,0.0118545065\C,0,-1.7628862589,0.4479
 329741,0.2531337639\C,0,-1.4418994389,1.5529597749,1.0581579871\C,0,-0
 .0605814676,1.6815946563,1.6506800951\F,0,0.8054116458,2.1920781244,0.
 7628653214\F,0,0.426836437,0.499802062,2.037715171\F,0,-0.0488205673,2
 .4886749183,2.7129002838\C,0,-2.3586573654,2.5704866132,1.3072237882\C
 ,0,-3.6271112933,2.5169526964,0.738565817\C,0,-4.6345260069,3.59219379
 14,1.0403436203\F,0,-4.0442759271,4.7699188317,1.2574349093\F,0,-5.345
 8785103,3.3001691078,2.1337828233\F,0,-5.5006720124,3.747750177,0.0362
 853557\C,0,-3.972428698,1.4447230221,-0.076508835\C,0,-3.0514137641,0.
 4258677668,-0.3037262581\C,0,-3.4776487352,-0.7435546234,-1.1530629554
 \F,0,-4.4397919544,-0.4096711224,-2.0143686674\F,0,-2.4466242785,-1.22
 03326704,-1.872684236\F,0,-3.9393930514,-1.7558093227,-0.4174876289\C,
 0,-0.7527989628,-3.3537941488,0.3136617671\C,0,-0.1622186247,-3.849295
 2336,-0.9623992157\S,0,-1.3281201946,-4.4725872116,1.4965291185\H,0,-2
 .3316825167,-3.3176498498,3.4459872316\H,0,0.4217941794,0.340422943,-1
 .6970583169\H,0,1.7507409545,-1.7744527887,0.0802776325\H,0,3.48936279
 34,-1.5076291604,-1.7138017677\H,0,2.7618163543,0.0314123705,-2.220422
 7465\H,0,4.0564498605,-0.5136371632,0.5190636115\H,0,3.3288048828,1.01
 15609413,0.0259941557\H,0,5.7246393539,-0.3309767696,-1.3532114931\H,0
 ,5.0007587869,1.1952674615,-1.8491810629\H,0,7.0393670625,1.6059096164
 ,-0.4542144745\H,0,5.5967905203,2.2141700343,0.3871468526\H,0,6.332129
 1573,0.6776766205,0.8860172461\H,0,-2.0797888199,3.4112511482,1.943667
 6007\H,0,-4.9580273029,1.4048905172,-0.5423902755\H,0,-0.7959123428,-4
 .6269845513,-1.4146730431\H,0,-0.0604454991,-3.0244925101,-1.677249320
 8\H,0,0.8361139303,-4.2877065663,-0.8040985159\\Version=ES64L-G16RevC.
 01\State=1-A\HF=-2109.4956909\RMSD=8.519e-09\Dipole=1.0694381,-1.02587
 96,-0.4707675\Quadrupole=-0.1512752,1.6878927,-1.5366176,0.0156425,-3.
 7999223,-2.1942175\PG=C01 [X(C19H17B1F9N1S1)]\\@
 The archive entry for this job was punched.


 IT TAKES GREATER CHARACTER TO CARRY OFF GOOD FORTUNE THAN BAD.
                     FRENCH PROVERB.
 Job cpu time:       0 days  3 hours 44 minutes 13.8 seconds.
 Elapsed time:       0 days  0 hours  9 minutes 22.4 seconds.
 File lengths (MBytes):  RWF=    592 Int=      0 D2E=      0 Chk=     81 Scr=      1
 Normal termination of Gaussian 16 at Thu Jan 23 19:03:21 2025.
