 Entering Gaussian System, Link 0=g16
 Input=with_proton.com
 Output=with_proton.log
 Initial command:
 /software/gaussian/G16-C.01/avx2/g16/l1.exe "/scratch/laplaza/9953607.slurm/Gau-115542.inp" -scrdir="/scratch/laplaza/9953607.slurm/"
 Entering Link 1 = /software/gaussian/G16-C.01/avx2/g16/l1.exe PID=    115543.
  
 Copyright (c) 1988-2019, Gaussian, Inc.  All Rights Reserved.
  
 This is part of the Gaussian(R) 16 program.  It is based on
 the Gaussian(R) 09 system (copyright 2009, Gaussian, Inc.),
 the Gaussian(R) 03 system (copyright 2003, Gaussian, Inc.),
 the Gaussian(R) 98 system (copyright 1998, Gaussian, Inc.),
 the Gaussian(R) 94 system (copyright 1995, Gaussian, Inc.),
 the Gaussian 92(TM) system (copyright 1992, Gaussian, Inc.),
 the Gaussian 90(TM) system (copyright 1990, Gaussian, Inc.),
 the Gaussian 88(TM) system (copyright 1988, Gaussian, Inc.),
 the Gaussian 86(TM) system (copyright 1986, Carnegie Mellon
 University), and the Gaussian 82(TM) system (copyright 1983,
 Carnegie Mellon University). Gaussian is a federally registered
 trademark of Gaussian, Inc.
  
 This software contains proprietary and confidential information,
 including trade secrets, belonging to Gaussian, Inc.
  
 This software is provided under written license and may be
 used, copied, transmitted, or stored only in accord with that
 written license.
  
 The following legend is applicable only to US Government
 contracts under FAR:
  
                    RESTRICTED RIGHTS LEGEND
  
 Use, reproduction and disclosure by the US Government is
 subject to restrictions as set forth in subparagraphs (a)
 and (c) of the Commercial Computer Software - Restricted
 Rights clause in FAR 52.227-19.
  
 Gaussian, Inc.
 340 Quinnipiac St., Bldg. 40, Wallingford CT 06492
  
  
 ---------------------------------------------------------------
 Warning -- This program may not be used in any manner that
 competes with the business of Gaussian, Inc. or will provide
 assistance to any competitor of Gaussian, Inc.  The licensee
 of this program is prohibited from giving any competitor of
 Gaussian, Inc. access to this program.  By using this program,
 the user acknowledges that Gaussian, Inc. is engaged in the
 business of creating and licensing software in the field of
 computational chemistry and represents and warrants to the
 licensee that it is not a competitor of Gaussian, Inc. and that
 it will not use this program in any manner prohibited above.
 ---------------------------------------------------------------
  

 Cite this work as:
 Gaussian 16, Revision C.01,
 M. J. Frisch, G. W. Trucks, H. B. Schlegel, G. E. Scuseria, 
 M. A. Robb, J. R. Cheeseman, G. Scalmani, V. Barone, 
 G. A. Petersson, H. Nakatsuji, X. Li, M. Caricato, A. V. Marenich, 
 J. Bloino, B. G. Janesko, R. Gomperts, B. Mennucci, H. P. Hratchian, 
 J. V. Ortiz, A. F. Izmaylov, J. L. Sonnenberg, D. Williams-Young, 
 F. Ding, F. Lipparini, F. Egidi, J. Goings, B. Peng, A. Petrone, 
 T. Henderson, D. Ranasinghe, V. G. Zakrzewski, J. Gao, N. Rega, 
 G. Zheng, W. Liang, M. Hada, M. Ehara, K. Toyota, R. Fukuda, 
 J. Hasegawa, M. Ishida, T. Nakajima, Y. Honda, O. Kitao, H. Nakai, 
 T. Vreven, K. Throssell, J. A. Montgomery, Jr., J. E. Peralta, 
 F. Ogliaro, M. J. Bearpark, J. J. Heyd, E. N. Brothers, K. N. Kudin, 
 V. N. Staroverov, T. A. Keith, R. Kobayashi, J. Normand, 
 K. Raghavachari, A. P. Rendell, J. C. Burant, S. S. Iyengar, 
 J. Tomasi, M. Cossi, J. M. Millam, M. Klene, C. Adamo, R. Cammi, 
 J. W. Ochterski, R. L. Martin, K. Morokuma, O. Farkas, 
 J. B. Foresman, and D. J. Fox, Gaussian, Inc., Wallingford CT, 2019.
 
 ******************************************
 Gaussian 16:  ES64L-G16RevC.01  3-Jul-2019
                24-Jan-2025 
 ******************************************
 %nprocshared=24
 Will use up to   24 processors via shared memory.
 %mem=24GB
 %chk=with_proton.chk
 -------------------------------------------------------------------
 #p opt freq=noraman def2svp pbe1pbe em=gd3bj integral=ultrafinegrid
 -------------------------------------------------------------------
 1/18=20,19=15,26=4,38=1/1,3;
 2/9=110,12=2,17=6,18=5,40=1/2;
 3/5=43,7=101,11=2,25=1,30=1,71=1,74=-13,75=-5,124=41/1,2,3;
 4//1;
 5/5=2,38=5/2;
 6/7=2,8=2,9=2,10=2,28=1/1;
 7//1,2,3,16;
 1/18=20,19=15,26=4/3(2);
 2/9=110/2;
 99//99;
 2/9=110/2;
 3/5=43,7=101,11=2,25=1,30=1,71=1,74=-13,75=-5,124=41/1,2,3;
 4/5=5,16=3,69=1/1;
 5/5=2,38=5/2;
 7//1,2,3,16;
 1/18=20,19=15,26=4/3(-5);
 2/9=110/2;
 6/7=2,8=2,9=2,10=2,19=2,28=1/1;
 99/9=1/99;
 Leave Link    1 at Fri Jan 24 16:52:24 2025, MaxMem=  3221225472 cpu:               2.3 elap:               0.1
 (Enter /software/gaussian/G16-C.01/avx2/g16/l101.exe)
 -----------
 with_proton
 -----------
 Symbolic Z-matrix:
 Charge =  1 Multiplicity = 1
 C                    -2.01661  -3.52781   2.38493 
 N                    -1.7319   -2.26433   1.9895 
 C                    -1.07455  -2.19965   0.79614 
 B                    -0.69789  -0.81816   0.16887 
 C                     0.67821  -0.57981  -0.56231 
 C                     1.76343  -1.30389  -0.28624 
 C                     3.07152  -1.023    -0.952 
 C                     3.69768   0.29549  -0.4628 
 C                     5.05836   0.55245  -1.1104 
 C                     5.68535   1.84415  -0.59209 
 C                    -1.69079   0.43675   0.38265 
 C                    -1.37629   1.44932   1.31164 
 C                    -0.09046   1.38966   2.14815 
 F                     1.00242   1.65996   1.35317 
 F                     0.05403   0.17444   2.75837 
 F                    -0.11547   2.36317   3.17121 
 C                    -2.23874   2.51418   1.47203 
 C                    -3.42946   2.61341   0.73523 
 C                    -4.37099   3.77695   0.94682 
 F                    -3.69733   4.92038   1.31592 
 F                    -5.26009   3.43527   1.96281 
 F                    -5.11958   4.04359  -0.17892 
 C                    -3.76057   1.5968   -0.14788 
 C                    -2.90288   0.50068  -0.34848 
 C                    -3.29605  -0.55545  -1.40072 
 F                    -4.4051   -0.20133  -2.10705 
 F                    -2.26485  -0.80837  -2.27448 
 F                    -3.58164  -1.73577  -0.71964 
 C                    -0.87603  -3.46223   0.2178 
 C                    -0.24574  -3.75845  -1.11691 
 S                    -1.47545  -4.62565   1.2349 
 H                    -2.53566  -3.77673   3.2844 
 H                     0.74503   0.29333  -1.21583 
 H                     1.72395  -2.13102   0.41414 
 H                     3.7713   -1.85998  -0.76034 
 H                     2.93059  -0.93385  -2.06488 
 H                     3.8266    0.22813   0.63608 
 H                     3.02123   1.1465   -0.65235 
 H                     5.75184  -0.28652  -0.86853 
 H                     4.93435   0.62932  -2.19504 
 H                     6.67474   2.00017  -1.06191 
 H                     5.00892   2.71744  -0.80861 
 H                     5.82256   1.79456   0.5113 
 H                    -2.01734   3.3068    2.17197 
 H                    -4.71335   1.64748  -0.68896 
 H                    -0.70494  -4.66497  -1.5639 
 H                    -0.39419  -2.92147  -1.82305 
 H                     0.8492   -3.96055  -0.99503 
 H                    -2.00454  -1.39074   2.59984 
 
 ITRead=  0  0  0  0  0  0  0  0  0  0  0  0  0  0  0  0  0  0  0  0
 ITRead=  0  0  0  0  0  0  0  0  0  0  0  0  0  0  0  0  0  0  0  0
 ITRead=  0  0  0  0  0  0  0  0  0
 MicOpt= -1 -1 -1 -1 -1 -1 -1 -1 -1 -1 -1 -1 -1 -1 -1 -1 -1 -1 -1 -1
 MicOpt= -1 -1 -1 -1 -1 -1 -1 -1 -1 -1 -1 -1 -1 -1 -1 -1 -1 -1 -1 -1
 MicOpt= -1 -1 -1 -1 -1 -1 -1 -1 -1
 NAtoms=     49 NQM=       49 NQMF=       0 NMMI=      0 NMMIF=      0
                NMic=       0 NMicF=      0.
                    Isotopes and Nuclear Properties:
 (Nuclear quadrupole moments (NQMom) in fm**2, nuclear magnetic moments (NMagM)
  in nuclear magnetons)

  Atom         1           2           3           4           5           6           7           8           9          10
 IAtWgt=          12          14          12          11          12          12          12          12          12          12
 AtmWgt=  12.0000000  14.0030740  12.0000000  11.0093053  12.0000000  12.0000000  12.0000000  12.0000000  12.0000000  12.0000000
 NucSpn=           0           2           0           3           0           0           0           0           0           0
 AtZEff=  -0.0000000  -0.0000000  -0.0000000  -0.0000000  -0.0000000  -0.0000000  -0.0000000  -0.0000000  -0.0000000  -0.0000000
 NQMom=    0.0000000   2.0440000   0.0000000   4.0590000   0.0000000   0.0000000   0.0000000   0.0000000   0.0000000   0.0000000
 NMagM=    0.0000000   0.4037610   0.0000000   2.6886370   0.0000000   0.0000000   0.0000000   0.0000000   0.0000000   0.0000000
 AtZNuc=   6.0000000   7.0000000   6.0000000   5.0000000   6.0000000   6.0000000   6.0000000   6.0000000   6.0000000   6.0000000

  Atom        11          12          13          14          15          16          17          18          19          20
 IAtWgt=          12          12          12          19          19          19          12          12          12          19
 AtmWgt=  12.0000000  12.0000000  12.0000000  18.9984032  18.9984032  18.9984032  12.0000000  12.0000000  12.0000000  18.9984032
 NucSpn=           0           0           0           1           1           1           0           0           0           1
 AtZEff=  -0.0000000  -0.0000000  -0.0000000  -0.0000000  -0.0000000  -0.0000000  -0.0000000  -0.0000000  -0.0000000  -0.0000000
 NQMom=    0.0000000   0.0000000   0.0000000   0.0000000   0.0000000   0.0000000   0.0000000   0.0000000   0.0000000   0.0000000
 NMagM=    0.0000000   0.0000000   0.0000000   2.6288670   2.6288670   2.6288670   0.0000000   0.0000000   0.0000000   2.6288670
 AtZNuc=   6.0000000   6.0000000   6.0000000   9.0000000   9.0000000   9.0000000   6.0000000   6.0000000   6.0000000   9.0000000

  Atom        21          22          23          24          25          26          27          28          29          30
 IAtWgt=          19          19          12          12          12          19          19          19          12          12
 AtmWgt=  18.9984032  18.9984032  12.0000000  12.0000000  12.0000000  18.9984032  18.9984032  18.9984032  12.0000000  12.0000000
 NucSpn=           1           1           0           0           0           1           1           1           0           0
 AtZEff=  -0.0000000  -0.0000000  -0.0000000  -0.0000000  -0.0000000  -0.0000000  -0.0000000  -0.0000000  -0.0000000  -0.0000000
 NQMom=    0.0000000   0.0000000   0.0000000   0.0000000   0.0000000   0.0000000   0.0000000   0.0000000   0.0000000   0.0000000
 NMagM=    2.6288670   2.6288670   0.0000000   0.0000000   0.0000000   2.6288670   2.6288670   2.6288670   0.0000000   0.0000000
 AtZNuc=   9.0000000   9.0000000   6.0000000   6.0000000   6.0000000   9.0000000   9.0000000   9.0000000   6.0000000   6.0000000

  Atom        31          32          33          34          35          36          37          38          39          40
 IAtWgt=          32           1           1           1           1           1           1           1           1           1
 AtmWgt=  31.9720718   1.0078250   1.0078250   1.0078250   1.0078250   1.0078250   1.0078250   1.0078250   1.0078250   1.0078250
 NucSpn=           0           1           1           1           1           1           1           1           1           1
 AtZEff=  -0.0000000  -0.0000000  -0.0000000  -0.0000000  -0.0000000  -0.0000000  -0.0000000  -0.0000000  -0.0000000  -0.0000000
 NQMom=    0.0000000   0.0000000   0.0000000   0.0000000   0.0000000   0.0000000   0.0000000   0.0000000   0.0000000   0.0000000
 NMagM=    0.0000000   2.7928460   2.7928460   2.7928460   2.7928460   2.7928460   2.7928460   2.7928460   2.7928460   2.7928460
 AtZNuc=  16.0000000   1.0000000   1.0000000   1.0000000   1.0000000   1.0000000   1.0000000   1.0000000   1.0000000   1.0000000

  Atom        41          42          43          44          45          46          47          48          49
 IAtWgt=           1           1           1           1           1           1           1           1           1
 AtmWgt=   1.0078250   1.0078250   1.0078250   1.0078250   1.0078250   1.0078250   1.0078250   1.0078250   1.0078250
 NucSpn=           1           1           1           1           1           1           1           1           1
 AtZEff=  -0.0000000  -0.0000000  -0.0000000  -0.0000000  -0.0000000  -0.0000000  -0.0000000  -0.0000000  -0.0000000
 NQMom=    0.0000000   0.0000000   0.0000000   0.0000000   0.0000000   0.0000000   0.0000000   0.0000000   0.0000000
 NMagM=    2.7928460   2.7928460   2.7928460   2.7928460   2.7928460   2.7928460   2.7928460   2.7928460   2.7928460
 AtZNuc=   1.0000000   1.0000000   1.0000000   1.0000000   1.0000000   1.0000000   1.0000000   1.0000000   1.0000000
 Leave Link  101 at Fri Jan 24 16:52:24 2025, MaxMem=  3221225472 cpu:              17.2 elap:               0.7
 (Enter /software/gaussian/G16-C.01/avx2/g16/l103.exe)

 GradGradGradGradGradGradGradGradGradGradGradGradGradGradGradGradGradGrad
 Berny optimization.
 Initialization pass.
                           ----------------------------
                           !    Initial Parameters    !
                           ! (Angstroms and Degrees)  !
 --------------------------                            --------------------------
 ! Name  Definition              Value          Derivative Info.                !
 --------------------------------------------------------------------------------
 ! R1    R(1,2)                  1.3542         estimate D2E/DX2                !
 ! R2    R(1,31)                 1.6795         estimate D2E/DX2                !
 ! R3    R(1,32)                 1.0679         estimate D2E/DX2                !
 ! R4    R(2,3)                  1.364          estimate D2E/DX2                !
 ! R5    R(2,49)                 1.1            estimate D2E/DX2                !
 ! R6    R(3,4)                  1.5633         estimate D2E/DX2                !
 ! R7    R(3,29)                 1.4029         estimate D2E/DX2                !
 ! R8    R(4,5)                  1.5764         estimate D2E/DX2                !
 ! R9    R(4,11)                 1.6144         estimate D2E/DX2                !
 ! R10   R(5,6)                  1.3335         estimate D2E/DX2                !
 ! R11   R(5,33)                 1.0927         estimate D2E/DX2                !
 ! R12   R(6,7)                  1.4944         estimate D2E/DX2                !
 ! R13   R(6,34)                 1.0845         estimate D2E/DX2                !
 ! R14   R(7,8)                  1.5394         estimate D2E/DX2                !
 ! R15   R(7,35)                 1.1077         estimate D2E/DX2                !
 ! R16   R(7,36)                 1.1253         estimate D2E/DX2                !
 ! R17   R(8,9)                  1.5287         estimate D2E/DX2                !
 ! R18   R(8,37)                 1.1085         estimate D2E/DX2                !
 ! R19   R(8,38)                 1.1035         estimate D2E/DX2                !
 ! R20   R(9,10)                 1.5265         estimate D2E/DX2                !
 ! R21   R(9,39)                 1.115          estimate D2E/DX2                !
 ! R22   R(9,40)                 1.0944         estimate D2E/DX2                !
 ! R23   R(10,41)                1.1063         estimate D2E/DX2                !
 ! R24   R(10,42)                1.1256         estimate D2E/DX2                !
 ! R25   R(10,43)                1.113          estimate D2E/DX2                !
 ! R26   R(11,12)                1.4097         estimate D2E/DX2                !
 ! R27   R(11,24)                1.417          estimate D2E/DX2                !
 ! R28   R(12,13)                1.5351         estimate D2E/DX2                !
 ! R29   R(12,17)                1.3797         estimate D2E/DX2                !
 ! R30   R(13,14)                1.3782         estimate D2E/DX2                !
 ! R31   R(13,15)                1.3675         estimate D2E/DX2                !
 ! R32   R(13,16)                1.4124         estimate D2E/DX2                !
 ! R33   R(17,18)                1.4038         estimate D2E/DX2                !
 ! R34   R(17,44)                1.0804         estimate D2E/DX2                !
 ! R35   R(18,19)                1.5116         estimate D2E/DX2                !
 ! R36   R(18,23)                1.3867         estimate D2E/DX2                !
 ! R37   R(19,20)                1.3775         estimate D2E/DX2                !
 ! R38   R(19,21)                1.3927         estimate D2E/DX2                !
 ! R39   R(19,22)                1.378          estimate D2E/DX2                !
 ! R40   R(23,24)                1.4062         estimate D2E/DX2                !
 ! R41   R(23,45)                1.0969         estimate D2E/DX2                !
 ! R42   R(24,25)                1.5418         estimate D2E/DX2                !
 ! R43   R(25,26)                1.3617         estimate D2E/DX2                !
 ! R44   R(25,27)                1.3751         estimate D2E/DX2                !
 ! R45   R(25,28)                1.3923         estimate D2E/DX2                !
 ! R46   R(29,30)                1.5055         estimate D2E/DX2                !
 ! R47   R(29,31)                1.6575         estimate D2E/DX2                !
 ! R48   R(30,46)                1.1102         estimate D2E/DX2                !
 ! R49   R(30,47)                1.1051         estimate D2E/DX2                !
 ! R50   R(30,48)                1.1201         estimate D2E/DX2                !
 ! A1    A(2,1,31)             110.0109         estimate D2E/DX2                !
 ! A2    A(2,1,32)             124.4448         estimate D2E/DX2                !
 ! A3    A(31,1,32)            125.5209         estimate D2E/DX2                !
 ! A4    A(1,2,3)              113.6437         estimate D2E/DX2                !
 ! A5    A(1,2,49)             121.7927         estimate D2E/DX2                !
 ! A6    A(3,2,49)             124.5585         estimate D2E/DX2                !
 ! A7    A(2,3,4)              120.6026         estimate D2E/DX2                !
 ! A8    A(2,3,29)             112.7193         estimate D2E/DX2                !
 ! A9    A(4,3,29)             126.5723         estimate D2E/DX2                !
 ! A10   A(3,4,5)              122.0083         estimate D2E/DX2                !
 ! A11   A(3,4,11)             119.0523         estimate D2E/DX2                !
 ! A12   A(5,4,11)             118.7353         estimate D2E/DX2                !
 ! A13   A(4,5,6)              122.1595         estimate D2E/DX2                !
 ! A14   A(4,5,33)             116.8471         estimate D2E/DX2                !
 ! A15   A(6,5,33)             120.5281         estimate D2E/DX2                !
 ! A16   A(5,6,7)              121.202          estimate D2E/DX2                !
 ! A17   A(5,6,34)             121.2112         estimate D2E/DX2                !
 ! A18   A(7,6,34)             117.5749         estimate D2E/DX2                !
 ! A19   A(6,7,8)              112.052          estimate D2E/DX2                !
 ! A20   A(6,7,35)             109.5041         estimate D2E/DX2                !
 ! A21   A(6,7,36)             110.2338         estimate D2E/DX2                !
 ! A22   A(8,7,35)             109.5862         estimate D2E/DX2                !
 ! A23   A(8,7,36)             107.2993         estimate D2E/DX2                !
 ! A24   A(35,7,36)            108.0654         estimate D2E/DX2                !
 ! A25   A(7,8,9)              111.8013         estimate D2E/DX2                !
 ! A26   A(7,8,37)             108.0774         estimate D2E/DX2                !
 ! A27   A(7,8,38)             110.8911         estimate D2E/DX2                !
 ! A28   A(9,8,37)             109.066          estimate D2E/DX2                !
 ! A29   A(9,8,38)             110.0738         estimate D2E/DX2                !
 ! A30   A(37,8,38)            106.7647         estimate D2E/DX2                !
 ! A31   A(8,9,10)             111.3451         estimate D2E/DX2                !
 ! A32   A(8,9,39)             109.5858         estimate D2E/DX2                !
 ! A33   A(8,9,40)             109.3173         estimate D2E/DX2                !
 ! A34   A(10,9,39)            107.9132         estimate D2E/DX2                !
 ! A35   A(10,9,40)            108.8819         estimate D2E/DX2                !
 ! A36   A(39,9,40)            109.7738         estimate D2E/DX2                !
 ! A37   A(9,10,41)            110.0267         estimate D2E/DX2                !
 ! A38   A(9,10,42)            110.1419         estimate D2E/DX2                !
 ! A39   A(9,10,43)            110.4596         estimate D2E/DX2                !
 ! A40   A(41,10,42)           110.2613         estimate D2E/DX2                !
 ! A41   A(41,10,43)           108.4839         estimate D2E/DX2                !
 ! A42   A(42,10,43)           107.4182         estimate D2E/DX2                !
 ! A43   A(4,11,12)            120.5567         estimate D2E/DX2                !
 ! A44   A(4,11,24)            119.5274         estimate D2E/DX2                !
 ! A45   A(12,11,24)           119.8987         estimate D2E/DX2                !
 ! A46   A(11,12,13)           121.2011         estimate D2E/DX2                !
 ! A47   A(11,12,17)           119.4422         estimate D2E/DX2                !
 ! A48   A(13,12,17)           119.3567         estimate D2E/DX2                !
 ! A49   A(12,13,14)           110.0142         estimate D2E/DX2                !
 ! A50   A(12,13,15)           111.4817         estimate D2E/DX2                !
 ! A51   A(12,13,16)           110.675          estimate D2E/DX2                !
 ! A52   A(14,13,15)           110.3587         estimate D2E/DX2                !
 ! A53   A(14,13,16)           107.2576         estimate D2E/DX2                !
 ! A54   A(15,13,16)           106.9266         estimate D2E/DX2                !
 ! A55   A(12,17,18)           121.5867         estimate D2E/DX2                !
 ! A56   A(12,17,44)           120.8953         estimate D2E/DX2                !
 ! A57   A(18,17,44)           117.5178         estimate D2E/DX2                !
 ! A58   A(17,18,19)           120.6151         estimate D2E/DX2                !
 ! A59   A(17,18,23)           119.0104         estimate D2E/DX2                !
 ! A60   A(19,18,23)           120.3115         estimate D2E/DX2                !
 ! A61   A(18,19,20)           111.8286         estimate D2E/DX2                !
 ! A62   A(18,19,21)           108.114          estimate D2E/DX2                !
 ! A63   A(18,19,22)           111.8985         estimate D2E/DX2                !
 ! A64   A(20,19,21)           108.6868         estimate D2E/DX2                !
 ! A65   A(20,19,22)           108.9027         estimate D2E/DX2                !
 ! A66   A(21,19,22)           107.2562         estimate D2E/DX2                !
 ! A67   A(18,23,24)           121.1088         estimate D2E/DX2                !
 ! A68   A(18,23,45)           119.1876         estimate D2E/DX2                !
 ! A69   A(24,23,45)           119.7004         estimate D2E/DX2                !
 ! A70   A(11,24,23)           118.9018         estimate D2E/DX2                !
 ! A71   A(11,24,25)           122.6411         estimate D2E/DX2                !
 ! A72   A(23,24,25)           118.4093         estimate D2E/DX2                !
 ! A73   A(24,25,26)           112.5539         estimate D2E/DX2                !
 ! A74   A(24,25,27)           111.618          estimate D2E/DX2                !
 ! A75   A(24,25,28)           107.4069         estimate D2E/DX2                !
 ! A76   A(26,25,27)           109.2083         estimate D2E/DX2                !
 ! A77   A(26,25,28)           107.8869         estimate D2E/DX2                !
 ! A78   A(27,25,28)           107.9823         estimate D2E/DX2                !
 ! A79   A(3,29,30)            127.0007         estimate D2E/DX2                !
 ! A80   A(3,29,31)            109.1214         estimate D2E/DX2                !
 ! A81   A(30,29,31)           123.8714         estimate D2E/DX2                !
 ! A82   A(29,30,46)           110.1484         estimate D2E/DX2                !
 ! A83   A(29,30,47)           111.177          estimate D2E/DX2                !
 ! A84   A(29,30,48)           110.3833         estimate D2E/DX2                !
 ! A85   A(46,30,47)           107.7953         estimate D2E/DX2                !
 ! A86   A(46,30,48)           107.5068         estimate D2E/DX2                !
 ! A87   A(47,30,48)           109.7254         estimate D2E/DX2                !
 ! A88   A(1,31,29)             94.4676         estimate D2E/DX2                !
 ! D1    D(31,1,2,3)            -0.949          estimate D2E/DX2                !
 ! D2    D(31,1,2,49)          179.8416         estimate D2E/DX2                !
 ! D3    D(32,1,2,3)          -179.2699         estimate D2E/DX2                !
 ! D4    D(32,1,2,49)            1.5207         estimate D2E/DX2                !
 ! D5    D(2,1,31,29)           -0.2295         estimate D2E/DX2                !
 ! D6    D(32,1,31,29)         178.0692         estimate D2E/DX2                !
 ! D7    D(1,2,3,4)            178.4539         estimate D2E/DX2                !
 ! D8    D(1,2,3,29)             1.9543         estimate D2E/DX2                !
 ! D9    D(49,2,3,4)            -2.3621         estimate D2E/DX2                !
 ! D10   D(49,2,3,29)         -178.8616         estimate D2E/DX2                !
 ! D11   D(2,3,4,5)            140.5821         estimate D2E/DX2                !
 ! D12   D(2,3,4,11)           -34.1591         estimate D2E/DX2                !
 ! D13   D(29,3,4,5)           -43.4391         estimate D2E/DX2                !
 ! D14   D(29,3,4,11)          141.8197         estimate D2E/DX2                !
 ! D15   D(2,3,29,30)          177.0504         estimate D2E/DX2                !
 ! D16   D(2,3,29,31)           -2.0389         estimate D2E/DX2                !
 ! D17   D(4,3,29,30)            0.8023         estimate D2E/DX2                !
 ! D18   D(4,3,29,31)         -178.287          estimate D2E/DX2                !
 ! D19   D(3,4,5,6)            -25.3064         estimate D2E/DX2                !
 ! D20   D(3,4,5,33)           162.4885         estimate D2E/DX2                !
 ! D21   D(11,4,5,6)           149.4509         estimate D2E/DX2                !
 ! D22   D(11,4,5,33)          -22.7543         estimate D2E/DX2                !
 ! D23   D(3,4,11,12)          103.6163         estimate D2E/DX2                !
 ! D24   D(3,4,11,24)          -74.8714         estimate D2E/DX2                !
 ! D25   D(5,4,11,12)          -71.2985         estimate D2E/DX2                !
 ! D26   D(5,4,11,24)          110.2138         estimate D2E/DX2                !
 ! D27   D(4,5,6,7)           -177.4679         estimate D2E/DX2                !
 ! D28   D(4,5,6,34)             3.815          estimate D2E/DX2                !
 ! D29   D(33,5,6,7)            -5.5436         estimate D2E/DX2                !
 ! D30   D(33,5,6,34)          175.7393         estimate D2E/DX2                !
 ! D31   D(5,6,7,8)             70.6432         estimate D2E/DX2                !
 ! D32   D(5,6,7,35)          -167.5416         estimate D2E/DX2                !
 ! D33   D(5,6,7,36)           -48.7795         estimate D2E/DX2                !
 ! D34   D(34,6,7,8)          -110.5946         estimate D2E/DX2                !
 ! D35   D(34,6,7,35)           11.2206         estimate D2E/DX2                !
 ! D36   D(34,6,7,36)          129.9827         estimate D2E/DX2                !
 ! D37   D(6,7,8,9)            177.9775         estimate D2E/DX2                !
 ! D38   D(6,7,8,37)            57.9342         estimate D2E/DX2                !
 ! D39   D(6,7,8,38)           -58.7683         estimate D2E/DX2                !
 ! D40   D(35,7,8,9)            56.2093         estimate D2E/DX2                !
 ! D41   D(35,7,8,37)          -63.834          estimate D2E/DX2                !
 ! D42   D(35,7,8,38)          179.4635         estimate D2E/DX2                !
 ! D43   D(36,7,8,9)           -60.8917         estimate D2E/DX2                !
 ! D44   D(36,7,8,37)          179.065          estimate D2E/DX2                !
 ! D45   D(36,7,8,38)           62.3625         estimate D2E/DX2                !
 ! D46   D(7,8,9,10)          -178.5788         estimate D2E/DX2                !
 ! D47   D(7,8,9,39)           -59.2676         estimate D2E/DX2                !
 ! D48   D(7,8,9,40)            61.0789         estimate D2E/DX2                !
 ! D49   D(37,8,9,10)          -59.1166         estimate D2E/DX2                !
 ! D50   D(37,8,9,39)           60.1946         estimate D2E/DX2                !
 ! D51   D(37,8,9,40)         -179.4589         estimate D2E/DX2                !
 ! D52   D(38,8,9,10)           57.7055         estimate D2E/DX2                !
 ! D53   D(38,8,9,39)          177.0167         estimate D2E/DX2                !
 ! D54   D(38,8,9,40)          -62.6368         estimate D2E/DX2                !
 ! D55   D(8,9,10,41)          179.0883         estimate D2E/DX2                !
 ! D56   D(8,9,10,42)          -59.1566         estimate D2E/DX2                !
 ! D57   D(8,9,10,43)           59.3427         estimate D2E/DX2                !
 ! D58   D(39,9,10,41)          58.786          estimate D2E/DX2                !
 ! D59   D(39,9,10,42)        -179.4589         estimate D2E/DX2                !
 ! D60   D(39,9,10,43)         -60.9596         estimate D2E/DX2                !
 ! D61   D(40,9,10,41)         -60.3131         estimate D2E/DX2                !
 ! D62   D(40,9,10,42)          61.4421         estimate D2E/DX2                !
 ! D63   D(40,9,10,43)         179.9414         estimate D2E/DX2                !
 ! D64   D(4,11,12,13)          -0.2124         estimate D2E/DX2                !
 ! D65   D(4,11,12,17)         179.7443         estimate D2E/DX2                !
 ! D66   D(24,11,12,13)        178.2696         estimate D2E/DX2                !
 ! D67   D(24,11,12,17)         -1.7736         estimate D2E/DX2                !
 ! D68   D(4,11,24,23)         179.7354         estimate D2E/DX2                !
 ! D69   D(4,11,24,25)          -2.8224         estimate D2E/DX2                !
 ! D70   D(12,11,24,23)          1.2376         estimate D2E/DX2                !
 ! D71   D(12,11,24,25)        178.6798         estimate D2E/DX2                !
 ! D72   D(11,12,13,14)         72.6521         estimate D2E/DX2                !
 ! D73   D(11,12,13,15)        -50.1164         estimate D2E/DX2                !
 ! D74   D(11,12,13,16)       -168.9932         estimate D2E/DX2                !
 ! D75   D(17,12,13,14)       -107.3047         estimate D2E/DX2                !
 ! D76   D(17,12,13,15)        129.9268         estimate D2E/DX2                !
 ! D77   D(17,12,13,16)         11.0499         estimate D2E/DX2                !
 ! D78   D(11,12,17,18)          0.2776         estimate D2E/DX2                !
 ! D79   D(11,12,17,44)       -179.5464         estimate D2E/DX2                !
 ! D80   D(13,12,17,18)       -179.7648         estimate D2E/DX2                !
 ! D81   D(13,12,17,44)          0.4112         estimate D2E/DX2                !
 ! D82   D(12,17,18,19)        178.8712         estimate D2E/DX2                !
 ! D83   D(12,17,18,23)          1.7491         estimate D2E/DX2                !
 ! D84   D(44,17,18,19)         -1.2991         estimate D2E/DX2                !
 ! D85   D(44,17,18,23)       -178.4211         estimate D2E/DX2                !
 ! D86   D(17,18,19,20)         30.8103         estimate D2E/DX2                !
 ! D87   D(17,18,19,21)        -88.8045         estimate D2E/DX2                !
 ! D88   D(17,18,19,22)        153.2988         estimate D2E/DX2                !
 ! D89   D(23,18,19,20)       -152.1052         estimate D2E/DX2                !
 ! D90   D(23,18,19,21)         88.28           estimate D2E/DX2                !
 ! D91   D(23,18,19,22)        -29.6166         estimate D2E/DX2                !
 ! D92   D(17,18,23,24)         -2.2885         estimate D2E/DX2                !
 ! D93   D(17,18,23,45)        177.0648         estimate D2E/DX2                !
 ! D94   D(19,18,23,24)       -179.4195         estimate D2E/DX2                !
 ! D95   D(19,18,23,45)         -0.0662         estimate D2E/DX2                !
 ! D96   D(18,23,24,11)          0.8144         estimate D2E/DX2                !
 ! D97   D(18,23,24,25)       -176.7369         estimate D2E/DX2                !
 ! D98   D(45,23,24,11)       -178.5357         estimate D2E/DX2                !
 ! D99   D(45,23,24,25)          3.913          estimate D2E/DX2                !
 ! D100  D(11,24,25,26)       -171.5286         estimate D2E/DX2                !
 ! D101  D(11,24,25,27)        -48.313          estimate D2E/DX2                !
 ! D102  D(11,24,25,28)         69.8681         estimate D2E/DX2                !
 ! D103  D(23,24,25,26)          5.9255         estimate D2E/DX2                !
 ! D104  D(23,24,25,27)        129.1411         estimate D2E/DX2                !
 ! D105  D(23,24,25,28)       -112.6777         estimate D2E/DX2                !
 ! D106  D(3,29,30,46)        -147.8926         estimate D2E/DX2                !
 ! D107  D(3,29,30,47)         -28.4692         estimate D2E/DX2                !
 ! D108  D(3,29,30,48)          93.5419         estimate D2E/DX2                !
 ! D109  D(31,29,30,46)         31.0711         estimate D2E/DX2                !
 ! D110  D(31,29,30,47)        150.4945         estimate D2E/DX2                !
 ! D111  D(31,29,30,48)        -87.4944         estimate D2E/DX2                !
 ! D112  D(3,29,31,1)            1.278          estimate D2E/DX2                !
 ! D113  D(30,29,31,1)        -177.8461         estimate D2E/DX2                !
 --------------------------------------------------------------------------------
 Trust Radius=3.00D-01 FncErr=1.00D-07 GrdErr=1.00D-06 EigMax=2.50D+02 EigMin=1.00D-04
 Number of steps in this run=    261 maximum allowed number of steps=    294.
 GradGradGradGradGradGradGradGradGradGradGradGradGradGradGradGradGradGrad

 Leave Link  103 at Fri Jan 24 16:52:25 2025, MaxMem=  3221225472 cpu:               0.7 elap:               0.0
 (Enter /software/gaussian/G16-C.01/avx2/g16/l202.exe)
                          Input orientation:                          
 ---------------------------------------------------------------------
 Center     Atomic      Atomic             Coordinates (Angstroms)
 Number     Number       Type             X           Y           Z
 ---------------------------------------------------------------------
      1          6           0       -2.016610   -3.527812    2.384930
      2          7           0       -1.731899   -2.264330    1.989504
      3          6           0       -1.074546   -2.199654    0.796141
      4          5           0       -0.697892   -0.818156    0.168875
      5          6           0        0.678213   -0.579811   -0.562311
      6          6           0        1.763425   -1.303892   -0.286238
      7          6           0        3.071521   -1.023002   -0.952004
      8          6           0        3.697675    0.295486   -0.462798
      9          6           0        5.058362    0.552446   -1.110405
     10          6           0        5.685349    1.844148   -0.592088
     11          6           0       -1.690792    0.436748    0.382651
     12          6           0       -1.376290    1.449323    1.311639
     13          6           0       -0.090461    1.389658    2.148152
     14          9           0        1.002419    1.659957    1.353174
     15          9           0        0.054035    0.174445    2.758374
     16          9           0       -0.115472    2.363172    3.171212
     17          6           0       -2.238743    2.514184    1.472030
     18          6           0       -3.429459    2.613414    0.735230
     19          6           0       -4.370985    3.776948    0.946816
     20          9           0       -3.697328    4.920382    1.315915
     21          9           0       -5.260086    3.435265    1.962810
     22          9           0       -5.119579    4.043586   -0.178918
     23          6           0       -3.760569    1.596796   -0.147877
     24          6           0       -2.902875    0.500677   -0.348482
     25          6           0       -3.296053   -0.555451   -1.400715
     26          9           0       -4.405098   -0.201326   -2.107047
     27          9           0       -2.264848   -0.808375   -2.274483
     28          9           0       -3.581636   -1.735772   -0.719638
     29          6           0       -0.876035   -3.462234    0.217800
     30          6           0       -0.245737   -3.758448   -1.116910
     31         16           0       -1.475448   -4.625647    1.234904
     32          1           0       -2.535665   -3.776726    3.284400
     33          1           0        0.745030    0.293326   -1.215832
     34          1           0        1.723951   -2.131018    0.414139
     35          1           0        3.771298   -1.859985   -0.760341
     36          1           0        2.930591   -0.933851   -2.064876
     37          1           0        3.826602    0.228130    0.636078
     38          1           0        3.021228    1.146503   -0.652347
     39          1           0        5.751837   -0.286517   -0.868534
     40          1           0        4.934352    0.629315   -2.195038
     41          1           0        6.674737    2.000174   -1.061912
     42          1           0        5.008921    2.717444   -0.808612
     43          1           0        5.822559    1.794559    0.511298
     44          1           0       -2.017344    3.306801    2.171968
     45          1           0       -4.713346    1.647482   -0.688956
     46          1           0       -0.704937   -4.664974   -1.563898
     47          1           0       -0.394187   -2.921472   -1.823052
     48          1           0        0.849200   -3.960554   -0.995028
     49          1           0       -2.004540   -1.390743    2.599843
 ---------------------------------------------------------------------
                    Distance matrix (angstroms):
                    1          2          3          4          5
     1  C    0.000000
     2  N    1.354182   0.000000
     3  C    2.275025   1.363968   0.000000
     4  B    3.740608   2.544656   1.563287   0.000000
     5  C    4.963769   3.893327   2.746169   1.576422   0.000000
     6  C    5.135136   4.280038   3.166704   2.549735   1.333490
     7  C    6.580142   5.767686   4.650848   3.937868   2.464995
     8  C    7.441789   6.484344   5.530348   4.578234   3.145346
     9  C    8.883755   7.978177   6.987241   6.053889   4.557206
    10  C    9.850926   8.863395   7.998480   6.957923   5.563081
    11  C    4.453427   3.143165   2.738859   1.614414   2.745638
    12  C    5.131651   3.791725   3.697543   2.628231   3.442391
    13  C    5.286551   4.008879   3.959737   3.026707   3.437482
    14  F    6.090320   4.825083   4.418219   3.230273   2.964920
    15  F    4.258372   3.119029   3.280304   2.873353   3.462001
    16  F    6.239892   5.042126   5.232605   4.412946   4.819780
    17  C    6.114608   4.833100   4.902289   3.895757   4.713807
    18  C    6.514008   5.314818   5.358633   4.422430   5.362207
    19  C    7.808378   6.674504   6.827077   5.933952   6.837632
    20  F    8.679837   7.479085   7.605528   6.575951   7.274971
    21  F    7.693033   6.703298   7.115629   6.490255   7.600030
    22  F    8.574835   7.481192   7.502738   6.580943   7.425441
    23  C    5.976463   4.857179   4.745411   3.913095   4.961064
    24  C    4.948305   3.805604   3.456116   2.620864   3.746647
    25  C    4.980263   4.106146   3.530535   3.046813   4.061810
    26  F    6.078507   5.308833   4.849164   4.393595   5.326303
    27  F    5.400656   4.537116   3.575082   2.902661   3.412533
    28  F    3.911400   3.322702   2.966188   3.153958   4.416708
    29  C    2.449829   2.303565   1.402852   2.650523   3.366396
    30  C    3.930912   3.753781   2.603177   3.240833   3.356337
    31  S    1.679481   2.492189   2.497734   4.029640   4.923111
    32  H    1.067906   2.147123   3.288382   4.673012   5.945289
    33  H    5.932388   4.790715   3.684269   2.287975   1.092667
    34  H    4.452735   3.800322   2.825283   2.765698   2.110276
    35  H    6.795164   6.165250   5.101001   4.682148   3.353392
    36  H    7.141722   6.320362   5.082204   4.262501   2.730614
    37  H    7.163009   6.240275   5.471837   4.667337   3.464283
    38  H    7.513593   6.419141   5.483634   4.285574   2.911698
    39  H    9.024400   8.251450   7.282221   6.554226   5.091312
    40  H    9.304498   8.385849   7.284029   6.277375   4.716196
    41  H   10.861807   9.908010   9.007902   7.988335   6.547078
    42  H    9.927740   8.836638   7.985090   6.784075   5.448632
    43  H    9.658711   8.702270   7.975269   7.032767   5.766677
    44  H    6.837930   5.581422   5.753504   4.771646   5.463338
    45  H    6.595819   5.600486   5.499712   4.789479   5.834876
    46  H    4.313567   4.409581   3.432812   4.219070   4.427734
    47  H    4.550497   4.093518   2.800729   2.912722   2.867557
    48  H    4.452443   4.294959   3.163836   3.690912   3.412610
    49  H    2.147881   1.100000   2.184620   2.818650   4.225398
                    6          7          8          9         10
     6  C    0.000000
     7  C    1.494409   0.000000
     8  C    2.516050   1.539416   0.000000
     9  C    3.870640   2.540604   1.528689   0.000000
    10  C    5.038371   3.896432   2.523076   1.526518   0.000000
    11  C    3.925412   5.156723   5.456218   6.913298   7.572209
    12  C    4.471154   5.569514   5.497735   6.933645   7.324398
    13  C    4.076563   5.042819   4.729086   6.150569   6.409014
    14  F    3.471484   4.097962   3.524761   4.873036   5.074230
    15  F    3.791722   4.930112   4.864845   6.336689   6.762041
    16  F    5.378808   6.214821   5.658750   6.955540   6.934071
    17  C    5.804012   6.825432   6.626254   7.985307   8.215885
    18  C    6.584431   7.637605   7.589736   8.927321   9.243012
    19  C    8.060170   9.057369   8.900049  10.175567  10.355375
    20  F    8.433760   9.288949   8.901660  10.081072  10.056755
    21  F    8.766273   9.888779   9.797105  11.145657  11.351727
    22  F    8.716811   9.662406   9.585031  10.800288  11.034252
    23  C    6.240805   7.361210   7.577466   8.932563   9.459592
    24  C    5.003469   6.195098   6.604728   7.997781   8.696083
    25  C    5.234553   6.400464   7.107462   8.432554   9.331534
    26  F    6.525464   7.609803   8.282832   9.545603  10.406545
    27  F    4.519474   5.501986   6.328696   7.538987   8.548214
    28  F    5.379966   6.695262   7.561769   8.946408   9.935245
    29  C    3.446627   4.785550   5.958397   7.286896   8.477344
    30  C    3.278962   4.302797   5.693219   6.835007   8.175714
    31  S    4.882440   6.199721   7.339002   8.660473   9.822075
    32  H    6.111181   7.547890   8.335402   9.783930  10.686741
    33  H    2.110066   2.686053   3.047159   4.322394   5.215444
    34  H    1.084537   2.215849   3.248465   4.543513   5.701500
    35  H    2.136718   1.107683   2.177156   2.756611   4.172828
    36  H    2.159343   1.125298   2.160172   2.765413   4.180320
    37  H    2.730285   2.158120   1.108462   2.161624   2.752244
    38  H    2.778586   2.190680   1.103512   2.170861   2.754611
    39  H    4.157109   2.780913   2.173231   1.115019   2.149552
    40  H    4.175594   2.783061   2.154406   1.094402   2.146919
    41  H    5.969884   4.704768   3.482499   2.170469   1.106331
    42  H    5.193964   4.214857   2.775758   2.186490   1.125648
    43  H    5.168465   4.200965   2.776907   2.181000   1.112989
    44  H    6.449456   7.375835   6.976493   8.272004   8.313293
    45  H    7.128910   8.234369   8.521990   9.841900  10.401006
    46  H    4.361432   5.282045   6.723211   7.787345   9.173267
    47  H    3.103813   4.046485   5.379818   6.504326   7.822222
    48  H    2.897592   3.683717   5.148879   6.172319   7.566059
    49  H    4.747059   6.206226   6.688677   8.211365   8.932376
                   11         12         13         14         15
    11  C    0.000000
    12  C    1.409695   0.000000
    13  C    2.566338   1.535145   0.000000
    14  F    3.113124   2.388377   1.378201   0.000000
    15  F    2.959270   2.400872   1.367477   2.254055   0.000000
    16  F    3.737488   2.425447   1.412447   2.247099   2.233762
    17  C    2.408887   1.379666   2.517302   3.353947   3.519359
    18  C    2.808051   2.429579   3.826595   4.575202   4.709183
    19  C    4.319566   3.810397   5.046310   5.789667   5.986699
    20  F    5.000014   4.175581   5.115478   5.720086   6.219109
    21  F    4.922181   4.410426   5.562722   6.537762   6.285360
    22  F    5.008116   4.792094   6.144153   6.745951   7.096775
    23  C    2.431286   2.799414   4.334091   4.994316   5.002057
    24  C    1.416964   2.446710   3.864342   4.414848   4.301429
    25  C    2.596482   3.880911   5.162725   5.564961   5.390163
    26  F    3.738073   4.856514   6.265304   6.684215   6.610400
    27  F    2.990022   4.329781   5.396203   5.470611   5.627859
    28  F    3.083857   4.374296   5.493708   6.069685   5.381783
    29  C    3.986610   5.056692   5.280553   5.572656   4.532657
    30  C    4.683645   5.856354   6.098175   6.084268   5.529497
    31  S    5.138146   6.076264   6.239880   6.757412   5.263189
    32  H    5.185298   5.705044   5.827659   6.767953   4.753420
    33  H    2.917010   3.496346   3.635434   2.921253   4.035582
    34  H    4.272573   4.820357   4.323662   3.971635   3.687712
    35  H    6.034554   6.460827   5.825178   4.952133   5.508022
    36  H    5.406118   5.969053   5.681114   4.704121   5.724215
    37  H    5.527149   5.386815   4.356478   3.246593   4.328889
    38  H    4.876280   4.825671   4.193391   2.891598   4.624083
    39  H    7.581643   7.653528   6.785456   5.593007   6.769926
    40  H    7.111547   7.265907   6.685071   5.395566   6.968550
    41  H    8.632100   8.411672   7.512999   6.174430   7.858853
    42  H    7.176827   6.846497   6.042282   4.673720   6.613708
    43  H    7.636140   7.251424   6.148743   4.894959   6.399218
    44  H    3.397867   2.145073   2.718250   3.535744   3.800807
    45  H    3.427835   3.895842   5.430168   6.069631   6.064803
    46  H    5.548741   6.789996   7.128496   7.171409   6.532843
    47  H    4.221842   5.467601   5.869289   5.747034   5.547528
    48  H    5.261732   6.288107   6.275931   6.093247   5.640791
    49  H    2.890346   3.181218   3.405636   4.461251   2.590884
                   16         17         18         19         20
    16  F    0.000000
    17  C    2.723656   0.000000
    18  C    4.120575   1.403754   0.000000
    19  C    5.005606   2.533156   1.511639   0.000000
    20  F    4.776101   2.818090   2.393961   1.377494   0.000000
    21  F    5.392279   3.196525   2.352358   1.392656   2.250834
    22  F    6.252059   3.655669   2.395322   1.377957   2.241895
    23  C    4.989029   2.404507   1.386731   2.514760   3.632204
    24  C    4.860735   2.794556   2.432155   3.816686   4.789067
    25  C    6.287843   4.335115   3.823841   5.043417   6.125834
    26  F    7.268944   4.987672   4.117422   5.015366   6.200766
    27  F    6.658387   5.007637   4.703544   5.986465   6.910977
    28  F    6.629807   4.966779   4.588596   5.812936   6.961411
    29  C    6.575443   6.256806   6.610688   8.071672   8.912564
    30  C    7.475238   7.072523   7.359832   8.835090   9.651642
    31  S    7.378509   7.184429   7.514774   8.892172   9.801529
    32  H    6.600643   6.553502   6.937653   8.117308   8.992445
    33  H    4.926549   4.589086   5.159051   6.556392   6.895936
    34  H    5.584145   6.196771   7.012158   8.505060   8.940118
    35  H    6.956949   7.761277   8.608073  10.049187  10.298766
    36  H    6.896773   7.149871   7.802173   9.196462   9.467370
    37  H    5.150268   6.535538   7.638706   8.938182   8.893195
    38  H    5.093012   5.835308   6.759331   8.007582   7.953314
    39  H    7.600376   8.784733   9.761038  11.057973  11.007740
    40  H    7.569916   8.273657   9.081655  10.313493  10.258945
    41  H    8.009872   9.280905  10.281078  11.366613  11.034556
    42  H    6.497994   7.600742   8.579075   9.601392   9.228507
    43  H    6.531361   8.150181   9.290882  10.393646  10.052185
    44  H    2.346496   1.080358   2.130510   2.694747   2.481696
    45  H    6.045954   3.397748   2.147020   2.706951   3.970350
    46  H    8.494914   7.944162   8.104562   9.539897  10.446376
    47  H    7.276525   6.618633   6.811214   8.267764   9.069649
    48  H    7.633980   7.585776   8.032295   9.533626  10.241211
    49  H    4.241099   4.071273   4.641169   5.919256   6.659151
                   21         22         23         24         25
    21  F    0.000000
    22  F    2.230872   0.000000
    23  C    3.175455   2.799045   0.000000
    24  C    4.417049   4.182671   1.406186   0.000000
    25  C    5.576427   5.095996   2.533288   1.541814   0.000000
    26  F    5.524449   4.716719   2.736240   2.417030   1.361723
    27  F    6.703326   6.006863   3.541819   2.414575   1.375072
    28  F    6.062371   6.004884   3.385992   2.366469   1.392330
    29  C    8.357060   8.631476   5.835070   4.487028   4.114057
    30  C    9.293970   9.246940   6.478557   5.078485   4.432173
    31  S    8.934855   9.509689   6.771459   5.551923   5.179536
    32  H    7.821885   8.934678   6.492739   5.623953   5.736298
    33  H    7.485784   7.037989   4.810404   3.755330   4.133395
    34  H    9.064141   9.236415   6.655255   5.377260   5.565658
    35  H   10.817630  10.688213   8.309842   7.091328   7.215216
    36  H   10.119220   9.650749   7.406125   6.247656   6.273387
    37  H    9.726964   9.759922   7.749387   6.806577   7.449479
    38  H    8.980959   8.653899   6.815425   5.966944   6.585191
    39  H   11.963721  11.722332   9.723790   8.705985   9.067517
    40  H   11.361673  10.807568   8.984906   8.052854   8.353095
    41  H   12.395500  12.002546  10.483024   9.720501  10.298673
    42  H   10.660608  10.234339   8.865460   8.229356   8.946230
    43  H   11.297071  11.192180   9.607807   8.862649   9.608716
    44  H    3.252019   3.961487   3.368179   3.874424   5.414439
    45  H    3.244527   2.483240   1.096868   2.169998   2.714449
    46  H    9.939865   9.861351   7.109977   5.743876   4.860935
    47  H    8.855384   8.575811   5.878222   4.492102   3.767924
    48  H   10.038442  10.017915   7.269923   5.865038   5.379818
    49  H    5.856172   6.852511   4.422555   3.616226   4.286045
                   26         27         28         29         30
    26  F    0.000000
    27  F    2.230967   0.000000
    28  F    2.226549   2.238647   0.000000
    29  C    5.337857   3.896568   3.343611   0.000000
    30  C    5.561813   3.757621   3.921385   1.505480   0.000000
    31  S    6.271053   5.245047   4.075247   1.657506   2.791998
    32  H    6.733942   6.307585   4.614311   3.501044   4.961414
    33  H    5.250025   3.375478   4.804528   4.334441   4.172322
    34  H    6.902560   4.988847   5.439754   2.927561   2.978643
    35  H    8.450930   6.311384   7.354095   5.012152   4.457340
    36  H    7.372293   5.201179   6.697898   5.108202   4.355002
    37  H    8.687350   6.830188   7.783114   5.992372   5.962358
    38  H    7.686554   5.864766   7.204849   6.098054   5.911635
    39  H   10.232522   8.155751   9.446493   7.429266   6.934472
    40  H    9.376728   7.341781   8.960608   7.504875   6.873729
    41  H   11.344675   9.448517  10.920972   9.406898   9.003206
    42  H    9.941273   8.215102   9.676607   8.595036   8.345277
    43  H   10.744498   8.941028  10.120144   8.520045   8.385175
    44  H    6.026466   6.063568   6.019629   7.137310   7.992062
    45  H    2.350338   3.813170   3.567649   6.454174   7.026147
    46  H    5.823260   4.220380   4.191467   2.156456   1.110158
    47  H    4.854612   2.858031   3.575366   2.165567   1.105080
    48  H    6.555611   4.611999   4.965662   2.166959   1.120085
    49  H    5.415921   4.915889   3.691236   3.352420   4.744857
                   31         32         33         34         35
    31  S    0.000000
    32  H    2.458690   0.000000
    33  H    5.927303   6.897852   0.000000
    34  H    4.139201   5.393615   3.080995   0.000000
    35  H    6.257654   7.733796   3.741993   2.375813   0.000000
    36  H    6.628053   8.159451   2.646415   3.005778   1.807298
    37  H    7.213145   7.970628   3.595817   3.167960   2.512621
    38  H    7.556423   8.403286   2.495296   3.682725   3.100522
    39  H    8.688277   9.905105   5.052222   4.612082   2.531807
    40  H    8.970210  10.258586   4.315339   4.973320   3.099623
    41  H   10.751855  11.708736   6.172394   6.614813   4.839600
    42  H   10.007197  10.763260   4.921681   5.982786   4.742035
    43  H    9.746976  10.420615   5.569378   5.676106   4.379546
    44  H    8.005965   7.189056   5.309325   6.830602   8.294726
    45  H    7.316923   7.067665   5.648470   7.545374   9.181318
    46  H    2.903193   5.257997   5.177672   4.029027   5.343252
    47  H    3.663938   5.603879   3.464311   3.180621   4.428021
    48  H    3.289215   5.459359   4.260880   2.469441   3.606400
    49  H    3.550717   2.538430   4.995558   4.384856   6.698606
                   36         37         38         39         40
    36  H    0.000000
    37  H    3.073791   0.000000
    38  H    2.516213   1.775409   0.000000
    39  H    3.132046   2.497049   3.091361   0.000000
    40  H    2.544699   3.066477   2.511459   1.807385   0.000000
    41  H    4.861386   3.759680   3.774206   2.473478   2.488407
    42  H    4.385158   3.111542   2.538346   3.095043   2.507592
    43  H    4.737549   2.540298   3.101854   2.497962   3.077491
    44  H    7.772775   6.781510   6.166915   9.083874   8.635146
    45  H    8.184510   8.757910   7.750868  10.643903   9.817486
    46  H    5.233480   7.022620   6.963368   7.832263   7.760761
    47  H    3.881141   5.812260   5.439120   6.754828   6.414031
    48  H    3.825923   5.391706   5.560321   6.127838   6.260622
    49  H    6.806164   6.362337   6.501746   8.567984   8.672932
                   41         42         43         44         45
    41  H    0.000000
    42  H    1.831278   0.000000
    43  H    1.800965   1.804407   0.000000
    44  H    9.365764   7.655038   8.155291   0.000000
    45  H   11.399646   9.781698  10.605071   4.266926   0.000000
    46  H    9.956695   9.365827   9.414892   8.901028   7.528610
    47  H    8.647058   7.875280   8.144818   7.575369   6.388791
    48  H    8.334964   7.869795   7.754007   8.429792   7.904788
    49  H   10.011825   8.813819   8.704691   4.717008   5.233033
                   46         47         48         49
    46  H    0.000000
    47  H    1.789840   0.000000
    48  H    1.798656   1.819706   0.000000
    49  H    5.454016   4.949583   5.260309   0.000000
 Stoichiometry    C19H18BF9NS(1+)
 Framework group  C1[X(C19H18BF9NS)]
 Deg. of freedom   141
 Full point group                 C1      NOp   1
 Largest Abelian subgroup         C1      NOp   1
 Largest concise Abelian subgroup C1      NOp   1
                         Standard orientation:                         
 ---------------------------------------------------------------------
 Center     Atomic      Atomic             Coordinates (Angstroms)
 Number     Number       Type             X           Y           Z
 ---------------------------------------------------------------------
      1          6           0       -0.797564    3.433843    2.361790
      2          7           0       -0.455388    2.236746    1.829169
      3          6           0       -1.116597    1.943450    0.672800
      4          5           0       -0.819566    0.617001   -0.099322
      5          6           0       -1.963149   -0.226687   -0.781606
      6          6           0       -3.228050   -0.177469   -0.362322
      7          6           0       -4.284913   -1.028427   -0.988555
      8          6           0       -4.114338   -2.516588   -0.633474
      9          6           0       -5.226427   -3.375122   -1.236024
     10          6           0       -5.066795   -4.843044   -0.848750
     11          6           0        0.682859    0.026220   -0.093707
     12          6           0        1.016280   -1.076575    0.718642
     13          6           0       -0.030159   -1.744128    1.621974
     14          9           0       -0.920970   -2.466558    0.857781
     15          9           0       -0.694566   -0.823226    2.383877
     16          9           0        0.585996   -2.648808    2.514675
     17          6           0        2.306063   -1.566110    0.701547
     18          6           0        3.301062   -0.988707   -0.102884
     19          6           0        4.713527   -1.526938   -0.085514
     20          9           0        4.743147   -2.879331    0.174571
     21          9           0        5.417118   -0.864227    0.917116
     22          9           0        5.369865   -1.286236   -1.272968
     23          6           0        2.984832    0.122307   -0.870132
     24          6           0        1.679261    0.644299   -0.889288
     25          6           0        1.378631    1.834217   -1.822513
     26          9           0        2.433620    2.149014   -2.623880
     27          9           0        0.271759    1.598415   -2.603574
     28          9           0        1.109239    2.937532   -1.017090
     29          6           0       -1.978409    2.972695    0.265457
     30          6           0       -2.811289    3.014157   -0.987963
     31         16           0       -1.933358    4.193716    1.385459
     32          1           0       -0.378625    3.838661    3.256795
     33          1           0       -1.655629   -0.957661   -1.533291
     34          1           0       -3.531154    0.496406    0.431556
     35          1           0       -5.283479   -0.680163   -0.659100
     36          1           0       -4.238462   -0.944479   -2.109756
     37          1           0       -4.141102   -2.612037    0.470547
     38          1           0       -3.128626   -2.888894   -0.961346
     39          1           0       -6.215179   -3.025980   -0.856896
     40          1           0       -5.197628   -3.291470   -2.326844
     41          1           0       -5.890661   -5.440943   -1.282029
     42          1           0       -4.072890   -5.232323   -1.206099
     43          1           0       -5.091350   -4.958302    0.257983
     44          1           0        2.585462   -2.414605    1.309136
     45          1           0        3.771889    0.605095   -1.462227
     46          1           0       -2.915738    4.060734   -1.343235
     47          1           0       -2.342206    2.427557   -1.798557
     48          1           0       -3.841013    2.622790   -0.785250
     49          1           0        0.279827    1.576380    2.312259
 ---------------------------------------------------------------------
 Rotational constants (GHZ):           0.1404532           0.0988724           0.0743770
 Leave Link  202 at Fri Jan 24 16:52:25 2025, MaxMem=  3221225472 cpu:               1.4 elap:               0.1
 (Enter /software/gaussian/G16-C.01/avx2/g16/l301.exe)
 Standard basis: def2SVP (5D, 7F)
 Ernie: Thresh=  0.10000D-02 Tol=  0.10000D-05 Strict=F.
 There are   559 symmetry adapted cartesian basis functions of A   symmetry.
 There are   528 symmetry adapted basis functions of A   symmetry.
   528 basis functions,   913 primitive gaussians,   559 cartesian basis functions
   120 alpha electrons      120 beta electrons
       nuclear repulsion energy      3532.8267027738 Hartrees.
 IExCor= 1009 DFT=T Ex+Corr=PBE1PBE ExCW=0 ScaHFX=  0.250000
 ScaDFX=  0.750000  0.750000  1.000000  1.000000 ScalE2=  1.000000  1.000000
 IRadAn=      5 IRanWt=     -1 IRanGd=            0 ICorTp=0 IEmpDi=141
 NAtoms=   49 NActive=   49 NUniq=   49 SFac= 1.00D+00 NAtFMM=   60 NAOKFM=F Big=F
 Integral buffers will be    131072 words long.
 Raffenetti 2 integral format.
 Two-electron integral symmetry is turned on.
 R6Disp:  Grimme-D3(BJ) Dispersion energy=       -0.0581656772 Hartrees.
 Nuclear repulsion after empirical dispersion term =     3532.7685370967 Hartrees.
 Leave Link  301 at Fri Jan 24 16:52:25 2025, MaxMem=  3221225472 cpu:               1.0 elap:               0.0
 (Enter /software/gaussian/G16-C.01/avx2/g16/l302.exe)
 NPDir=0 NMtPBC=     1 NCelOv=     1 NCel=       1 NClECP=     1 NCelD=      1
         NCelK=      1 NCelE2=     1 NClLst=     1 CellRange=     0.0.
 One-electron integrals computed using PRISM.
 One-electron integral symmetry used in STVInt
   1 Symmetry operations used in ECPInt.
 ECPInt:  NShTT=   29403 NPrTT=  110213 LenC2=   24138 LenP2D=   58730.
 LDataN:  DoStor=T MaxTD1= 4 Len=   56
 NBasis=   528 RedAO= T EigKep=  2.32D-04  NBF=   528
 NBsUse=   528 1.00D-06 EigRej= -1.00D+00 NBFU=   528
 Precomputing XC quadrature grid using
 IXCGrd= 4 IRadAn=           5 IRanWt=          -1 IRanGd=           0 AccXCQ= 0.00D+00.
 Generated NRdTot=       0 NPtTot=           0 NUsed=           0 NTot=          32
 NSgBfM=   547   547   547   547   547 MxSgAt=    49 MxSgA2=    49.
 Leave Link  302 at Fri Jan 24 16:52:25 2025, MaxMem=  3221225472 cpu:              16.8 elap:               0.7
 (Enter /software/gaussian/G16-C.01/avx2/g16/l303.exe)
 DipDrv:  MaxL=1.
 Leave Link  303 at Fri Jan 24 16:52:26 2025, MaxMem=  3221225472 cpu:               2.3 elap:               0.1
 (Enter /software/gaussian/G16-C.01/avx2/g16/l401.exe)
 ExpMin= 8.36D-02 ExpMax= 9.18D+03 ExpMxC= 1.38D+03 IAcc=3 IRadAn=         5 AccDes= 0.00D+00
 Harris functional with IExCor= 1009 and IRadAn=       5 diagonalized for initial guess.
 HarFok:  IExCor= 1009 AccDes= 0.00D+00 IRadAn=         5 IDoV= 1 UseB2=F ITyADJ=14
 ICtDFT=  3500011 ScaDFX=  1.000000  1.000000  1.000000  1.000000
 FoFCou: FMM=F IPFlag=           0 FMFlag=      100000 FMFlg1=           0
         NFxFlg=           0 DoJE=T BraDBF=F KetDBF=T FulRan=T
         wScrn=  0.000000 ICntrl=       500 IOpCl=  0 I1Cent=   200000004 NGrid=           0
         NMat0=    1 NMatS0=      1 NMatT0=    0 NMatD0=    1 NMtDS0=    0 NMtDT0=    0
 Petite list used in FoFCou.
 Harris En= -2107.95968463871    
 JPrj=0 DoOrth=F DoCkMO=F.
 Leave Link  401 at Fri Jan 24 16:52:27 2025, MaxMem=  3221225472 cpu:              38.2 elap:               1.6
 (Enter /software/gaussian/G16-C.01/avx2/g16/l502.exe)
 Integral symmetry usage will be decided dynamically.
 Closed shell SCF:
 Using DIIS extrapolation, IDIIS=  1040.
 NGot=  3221225472 LenX=  3220580158 LenY=  3220267118
 Requested convergence on RMS density matrix=1.00D-08 within 128 cycles.
 Requested convergence on MAX density matrix=1.00D-06.
 Requested convergence on             energy=1.00D-06.
 No special actions if energy rises.
 Fock matrices will be formed incrementally for  20 cycles.
 Integral accuracy reduced to 1.0D-05 until final iterations.

 Cycle   1  Pass 0  IDiag  1:
 FoFJK:  IHMeth= 1 ICntrl=       0 DoSepK=F KAlg= 0 I1Cent=           0 FoldK=F
 IRaf= 730000000 NMat=       1 IRICut=       1 DoRegI=T DoRafI=F ISym2E= 0 IDoP0=0 IntGTp=1.
 FoFCou: FMM=F IPFlag=           0 FMFlag=      100000 FMFlg1=           0
         NFxFlg=           0 DoJE=F BraDBF=F KetDBF=F FulRan=T
         wScrn=  0.000000 ICntrl=         0 IOpCl=  0 I1Cent=           0 NGrid=           0
         NMat0=    1 NMatS0=      1 NMatT0=    0 NMatD0=    1 NMtDS0=    0 NMtDT0=    0
 Symmetry not used in FoFCou.
 E= -2107.16055318283    
 DIIS: error= 2.43D-02 at cycle   1 NSaved=   1.
 NSaved= 1 IEnMin= 1 EnMin= -2107.16055318283     IErMin= 1 ErrMin= 2.43D-02
 ErrMax= 2.43D-02  0.00D+00 EMaxC= 1.00D-01 BMatC= 6.07D-01 BMatP= 6.07D-01
 IDIUse=3 WtCom= 7.57D-01 WtEn= 2.43D-01
 Coeff-Com:  0.100D+01
 Coeff-En:   0.100D+01
 Coeff:      0.100D+01
 Gap=     0.344 Goal=   None    Shift=    0.000
 GapD=    0.344 DampG=1.000 DampE=0.500 DampFc=0.5000 IDamp=-1.
 Damping current iteration by 5.00D-01
 RMSDP=4.46D-03 MaxDP=1.85D-01              OVMax= 9.56D-01

 Cycle   2  Pass 0  IDiag  1:
 RMSU=  2.21D-03    CP:  9.85D-01
 E= -2107.03964451468     Delta-E=        0.120908668149 Rises=F Damp=T
 DIIS: error= 1.08D-02 at cycle   2 NSaved=   2.
 NSaved= 2 IEnMin= 1 EnMin= -2107.16055318283     IErMin= 2 ErrMin= 1.08D-02
 ErrMax= 1.08D-02  0.00D+00 EMaxC= 1.00D-01 BMatC= 1.11D-01 BMatP= 6.07D-01
 IDIUse=3 WtCom= 8.92D-01 WtEn= 1.08D-01
 Coeff-Com:  0.230D+00 0.770D+00
 Coeff-En:   0.580D+00 0.420D+00
 Coeff:      0.268D+00 0.732D+00
 Gap=    -0.364 Goal=   None    Shift=    0.000
 RMSDP=2.06D-03 MaxDP=1.22D-01 DE= 1.21D-01 OVMax= 6.05D-01

 Cycle   3  Pass 0  IDiag  1:
 RMSU=  1.74D-03    CP:  9.77D-01  5.04D-01
 E= -2107.54597809295     Delta-E=       -0.506333578271 Rises=F Damp=F
 DIIS: error= 1.58D-02 at cycle   3 NSaved=   3.
 NSaved= 3 IEnMin= 3 EnMin= -2107.54597809295     IErMin= 2 ErrMin= 1.08D-02
 ErrMax= 1.58D-02  0.00D+00 EMaxC= 1.00D-01 BMatC= 1.59D-01 BMatP= 1.11D-01
 IDIUse=2 WtCom= 0.00D+00 WtEn= 1.00D+00
 Coeff-En:   0.000D+00 0.577D-01 0.942D+00
 Coeff:      0.000D+00 0.577D-01 0.942D+00
 Gap=     0.366 Goal=   None    Shift=    0.000
 RMSDP=3.31D-03 MaxDP=2.95D-01 DE=-5.06D-01 OVMax= 7.89D-01

 Cycle   4  Pass 0  IDiag  1:
 RMSU=  1.69D-03    CP:  9.77D-01  1.35D+00 -2.33D-01
 E= -2105.93038992795     Delta-E=        1.615588165001 Rises=F Damp=F
 DIIS: error= 3.33D-02 at cycle   4 NSaved=   4.
 NSaved= 4 IEnMin= 3 EnMin= -2107.54597809295     IErMin= 2 ErrMin= 1.08D-02
 ErrMax= 3.33D-02  0.00D+00 EMaxC= 1.00D-01 BMatC= 9.80D-01 BMatP= 1.11D-01
 IDIUse=2 WtCom= 0.00D+00 WtEn= 1.00D+00
 Coeff-En:   0.000D+00 0.000D+00 0.860D+00 0.140D+00
 Coeff:      0.000D+00 0.000D+00 0.860D+00 0.140D+00
 Gap=     0.029 Goal=   None    Shift=    0.000
 RMSDP=2.60D-03 MaxDP=1.75D-01 DE= 1.62D+00 OVMax= 9.57D-01

 Cycle   5  Pass 0  IDiag  1:
 RMSU=  1.23D-03    CP:  9.81D-01  6.20D-01  4.29D-01  3.25D-01
 E= -2107.67304792041     Delta-E=       -1.742657992458 Rises=F Damp=F
 DIIS: error= 9.68D-03 at cycle   5 NSaved=   5.
 NSaved= 5 IEnMin= 5 EnMin= -2107.67304792041     IErMin= 5 ErrMin= 9.68D-03
 ErrMax= 9.68D-03  0.00D+00 EMaxC= 1.00D-01 BMatC= 7.42D-02 BMatP= 1.11D-01
 IDIUse=3 WtCom= 9.03D-01 WtEn= 9.68D-02
 Coeff-Com:  0.141D-01 0.175D+00 0.393D+00 0.129D-01 0.405D+00
 Coeff-En:   0.000D+00 0.000D+00 0.281D+00 0.000D+00 0.719D+00
 Coeff:      0.127D-01 0.158D+00 0.382D+00 0.116D-01 0.436D+00
 Gap=     0.181 Goal=   None    Shift=    0.000
 RMSDP=7.03D-04 MaxDP=7.51D-02 DE=-1.74D+00 OVMax= 1.30D-01

 Cycle   6  Pass 0  IDiag  1:
 RMSU=  3.62D-04    CP:  9.79D-01  6.01D-01  6.31D-01  1.80D-01  6.59D-01
 E= -2107.74224172560     Delta-E=       -0.069193805187 Rises=F Damp=F
 DIIS: error= 3.44D-03 at cycle   6 NSaved=   6.
 NSaved= 6 IEnMin= 6 EnMin= -2107.74224172560     IErMin= 6 ErrMin= 3.44D-03
 ErrMax= 3.44D-03  0.00D+00 EMaxC= 1.00D-01 BMatC= 6.78D-03 BMatP= 7.42D-02
 IDIUse=3 WtCom= 9.66D-01 WtEn= 3.44D-02
 Coeff-Com: -0.198D-01 0.696D-01 0.103D+00-0.131D-01 0.277D+00 0.584D+00
 Coeff-En:   0.000D+00 0.000D+00 0.000D+00 0.000D+00 0.617D-01 0.938D+00
 Coeff:     -0.191D-01 0.672D-01 0.990D-01-0.127D-01 0.269D+00 0.596D+00
 Gap=     0.174 Goal=   None    Shift=    0.000
 RMSDP=2.24D-04 MaxDP=2.04D-02 DE=-6.92D-02 OVMax= 4.19D-02

 Cycle   7  Pass 0  IDiag  1:
 RMSU=  1.34D-04    CP:  9.79D-01  6.18D-01  5.92D-01  1.94D-01  7.63D-01
                    CP:  7.35D-01
 E= -2107.74953808646     Delta-E=       -0.007296360859 Rises=F Damp=F
 DIIS: error= 1.37D-03 at cycle   7 NSaved=   7.
 NSaved= 7 IEnMin= 7 EnMin= -2107.74953808646     IErMin= 7 ErrMin= 1.37D-03
 ErrMax= 1.37D-03  0.00D+00 EMaxC= 1.00D-01 BMatC= 7.25D-04 BMatP= 6.78D-03
 IDIUse=3 WtCom= 9.86D-01 WtEn= 1.37D-02
 Coeff-Com: -0.118D-01 0.227D-01-0.738D-02-0.610D-02 0.685D-01 0.350D+00
 Coeff-Com:  0.584D+00
 Coeff-En:   0.000D+00 0.000D+00 0.000D+00 0.000D+00 0.000D+00 0.892D-02
 Coeff-En:   0.991D+00
 Coeff:     -0.117D-01 0.223D-01-0.728D-02-0.602D-02 0.676D-01 0.345D+00
 Coeff:      0.590D+00
 Gap=     0.170 Goal=   None    Shift=    0.000
 RMSDP=7.27D-05 MaxDP=6.10D-03 DE=-7.30D-03 OVMax= 1.14D-02

 Cycle   8  Pass 0  IDiag  1:
 RMSU=  4.97D-05    CP:  9.79D-01  6.21D-01  5.90D-01  1.97D-01  7.65D-01
                    CP:  8.44D-01  7.43D-01
 E= -2107.75027966642     Delta-E=       -0.000741579967 Rises=F Damp=F
 DIIS: error= 3.97D-04 at cycle   8 NSaved=   8.
 NSaved= 8 IEnMin= 8 EnMin= -2107.75027966642     IErMin= 8 ErrMin= 3.97D-04
 ErrMax= 3.97D-04  0.00D+00 EMaxC= 1.00D-01 BMatC= 9.25D-05 BMatP= 7.25D-04
 IDIUse=3 WtCom= 9.96D-01 WtEn= 3.97D-03
 Coeff-Com: -0.439D-02 0.469D-02-0.172D-01-0.957D-04-0.111D-03 0.129D+00
 Coeff-Com:  0.346D+00 0.543D+00
 Coeff-En:   0.000D+00 0.000D+00 0.000D+00 0.000D+00 0.000D+00 0.000D+00
 Coeff-En:   0.149D-01 0.985D+00
 Coeff:     -0.437D-02 0.467D-02-0.172D-01-0.953D-04-0.110D-03 0.128D+00
 Coeff:      0.344D+00 0.545D+00
 Gap=     0.170 Goal=   None    Shift=    0.000
 RMSDP=2.15D-05 MaxDP=1.90D-03 DE=-7.42D-04 OVMax= 2.29D-03

 Cycle   9  Pass 0  IDiag  1:
 RMSU=  1.43D-05    CP:  9.79D-01  6.22D-01  5.90D-01  1.97D-01  7.68D-01
                    CP:  8.52D-01  7.99D-01  7.37D-01
 E= -2107.75037257925     Delta-E=       -0.000092912830 Rises=F Damp=F
 DIIS: error= 5.26D-05 at cycle   9 NSaved=   9.
 NSaved= 9 IEnMin= 9 EnMin= -2107.75037257925     IErMin= 9 ErrMin= 5.26D-05
 ErrMax= 5.26D-05  0.00D+00 EMaxC= 1.00D-01 BMatC= 3.08D-06 BMatP= 9.25D-05
 IDIUse=1 WtCom= 1.00D+00 WtEn= 0.00D+00
 Coeff-Com: -0.116D-02 0.144D-02-0.649D-02 0.837D-04-0.283D-02 0.268D-01
 Coeff-Com:  0.904D-01 0.189D+00 0.703D+00
 Coeff:     -0.116D-02 0.144D-02-0.649D-02 0.837D-04-0.283D-02 0.268D-01
 Coeff:      0.904D-01 0.189D+00 0.703D+00
 Gap=     0.169 Goal=   None    Shift=    0.000
 RMSDP=6.79D-06 MaxDP=3.73D-04 DE=-9.29D-05 OVMax= 1.27D-03

 Initial convergence to 1.0D-05 achieved.  Increase integral accuracy.
 Cycle  10  Pass 1  IDiag  1:
 E= -2107.75040438254     Delta-E=       -0.000031803286 Rises=F Damp=F
 DIIS: error= 1.63D-04 at cycle   1 NSaved=   1.
 NSaved= 1 IEnMin= 1 EnMin= -2107.75040438254     IErMin= 1 ErrMin= 1.63D-04
 ErrMax= 1.63D-04  0.00D+00 EMaxC= 1.00D-01 BMatC= 6.03D-06 BMatP= 6.03D-06
 IDIUse=3 WtCom= 9.98D-01 WtEn= 1.63D-03
 Coeff-Com:  0.100D+01
 Coeff-En:   0.100D+01
 Coeff:      0.100D+01
 Gap=     0.169 Goal=   None    Shift=    0.000
 RMSDP=6.79D-06 MaxDP=3.73D-04 DE=-3.18D-05 OVMax= 7.85D-04

 Cycle  11  Pass 1  IDiag  1:
 RMSU=  8.17D-05    CP:  1.00D+00
 E= -2107.75040651473     Delta-E=       -0.000002132187 Rises=F Damp=F
 DIIS: error= 5.60D-05 at cycle   2 NSaved=   2.
 NSaved= 2 IEnMin= 2 EnMin= -2107.75040651473     IErMin= 2 ErrMin= 5.60D-05
 ErrMax= 5.60D-05  0.00D+00 EMaxC= 1.00D-01 BMatC= 3.55D-06 BMatP= 6.03D-06
 IDIUse=1 WtCom= 1.00D+00 WtEn= 0.00D+00
 Coeff-Com:  0.408D+00 0.592D+00
 Coeff:      0.408D+00 0.592D+00
 Gap=     0.170 Goal=   None    Shift=    0.000
 RMSDP=7.05D-06 MaxDP=2.64D-04 DE=-2.13D-06 OVMax= 8.83D-04

 Cycle  12  Pass 1  IDiag  1:
 RMSU=  7.05D-06    CP:  1.00D+00  1.00D+00
 E= -2107.75040844626     Delta-E=       -0.000001931538 Rises=F Damp=F
 DIIS: error= 4.22D-05 at cycle   3 NSaved=   3.
 NSaved= 3 IEnMin= 3 EnMin= -2107.75040844626     IErMin= 3 ErrMin= 4.22D-05
 ErrMax= 4.22D-05  0.00D+00 EMaxC= 1.00D-01 BMatC= 1.78D-06 BMatP= 3.55D-06
 IDIUse=1 WtCom= 1.00D+00 WtEn= 0.00D+00
 Coeff-Com:  0.102D-01 0.412D+00 0.577D+00
 Coeff:      0.102D-01 0.412D+00 0.577D+00
 Gap=     0.169 Goal=   None    Shift=    0.000
 RMSDP=3.16D-06 MaxDP=1.23D-04 DE=-1.93D-06 OVMax= 4.06D-04

 Cycle  13  Pass 1  IDiag  1:
 RMSU=  9.76D-07    CP:  1.00D+00  1.01D+00  5.86D-01
 E= -2107.75041029551     Delta-E=       -0.000001849246 Rises=F Damp=F
 DIIS: error= 1.01D-05 at cycle   4 NSaved=   4.
 NSaved= 4 IEnMin= 4 EnMin= -2107.75041029551     IErMin= 4 ErrMin= 1.01D-05
 ErrMax= 1.01D-05  0.00D+00 EMaxC= 1.00D-01 BMatC= 6.44D-08 BMatP= 1.78D-06
 IDIUse=1 WtCom= 1.00D+00 WtEn= 0.00D+00
 Coeff-Com: -0.423D-02 0.233D+00 0.345D+00 0.426D+00
 Coeff:     -0.423D-02 0.233D+00 0.345D+00 0.426D+00
 Gap=     0.169 Goal=   None    Shift=    0.000
 RMSDP=5.62D-07 MaxDP=3.90D-05 DE=-1.85D-06 OVMax= 6.39D-05

 Cycle  14  Pass 1  IDiag  1:
 RMSU=  2.60D-07    CP:  1.00D+00  1.01D+00  5.99D-01  4.99D-01
 E= -2107.75041036285     Delta-E=       -0.000000067336 Rises=F Damp=F
 DIIS: error= 1.68D-06 at cycle   5 NSaved=   5.
 NSaved= 5 IEnMin= 5 EnMin= -2107.75041036285     IErMin= 5 ErrMin= 1.68D-06
 ErrMax= 1.68D-06  0.00D+00 EMaxC= 1.00D-01 BMatC= 1.34D-09 BMatP= 6.44D-08
 IDIUse=1 WtCom= 1.00D+00 WtEn= 0.00D+00
 Coeff-Com: -0.251D-02 0.125D+00 0.184D+00 0.244D+00 0.450D+00
 Coeff:     -0.251D-02 0.125D+00 0.184D+00 0.244D+00 0.450D+00
 Gap=     0.169 Goal=   None    Shift=    0.000
 RMSDP=9.71D-08 MaxDP=7.06D-06 DE=-6.73D-08 OVMax= 1.49D-05

 Cycle  15  Pass 1  IDiag  1:
 RMSU=  8.16D-08    CP:  1.00D+00  1.01D+00  5.99D-01  5.24D-01  8.21D-01
 E= -2107.75041036431     Delta-E=       -0.000000001461 Rises=F Damp=F
 DIIS: error= 3.94D-07 at cycle   6 NSaved=   6.
 NSaved= 6 IEnMin= 6 EnMin= -2107.75041036431     IErMin= 6 ErrMin= 3.94D-07
 ErrMax= 3.94D-07  0.00D+00 EMaxC= 1.00D-01 BMatC= 1.11D-10 BMatP= 1.34D-09
 IDIUse=1 WtCom= 1.00D+00 WtEn= 0.00D+00
 Coeff-Com: -0.306D-03 0.102D-01 0.132D-01 0.252D-01 0.222D+00 0.730D+00
 Coeff:     -0.306D-03 0.102D-01 0.132D-01 0.252D-01 0.222D+00 0.730D+00
 Gap=     0.169 Goal=   None    Shift=    0.000
 RMSDP=2.96D-08 MaxDP=2.21D-06 DE=-1.46D-09 OVMax= 3.89D-06

 Cycle  16  Pass 1  IDiag  1:
 RMSU=  2.19D-08    CP:  1.00D+00  1.01D+00  5.98D-01  5.29D-01  8.86D-01
                    CP:  9.10D-01
 E= -2107.75041036443     Delta-E=       -0.000000000125 Rises=F Damp=F
 DIIS: error= 1.41D-07 at cycle   7 NSaved=   7.
 NSaved= 7 IEnMin= 7 EnMin= -2107.75041036443     IErMin= 7 ErrMin= 1.41D-07
 ErrMax= 1.41D-07  0.00D+00 EMaxC= 1.00D-01 BMatC= 1.64D-11 BMatP= 1.11D-10
 IDIUse=1 WtCom= 1.00D+00 WtEn= 0.00D+00
 Coeff-Com:  0.158D-03-0.106D-01-0.170D-01-0.177D-01 0.732D-01 0.386D+00
 Coeff-Com:  0.586D+00
 Coeff:      0.158D-03-0.106D-01-0.170D-01-0.177D-01 0.732D-01 0.386D+00
 Coeff:      0.586D+00
 Gap=     0.169 Goal=   None    Shift=    0.000
 RMSDP=1.23D-08 MaxDP=7.95D-07 DE=-1.25D-10 OVMax= 1.36D-06

 Cycle  17  Pass 1  IDiag  1:
 RMSU=  9.91D-09    CP:  1.00D+00  1.01D+00  5.98D-01  5.30D-01  9.05D-01
                    CP:  9.51D-01  8.13D-01
 E= -2107.75041036442     Delta-E=        0.000000000014 Rises=F Damp=F
 DIIS: error= 3.81D-08 at cycle   8 NSaved=   8.
 NSaved= 8 IEnMin= 7 EnMin= -2107.75041036443     IErMin= 8 ErrMin= 3.81D-08
 ErrMax= 3.81D-08  0.00D+00 EMaxC= 1.00D-01 BMatC= 1.87D-12 BMatP= 1.64D-11
 IDIUse=1 WtCom= 1.00D+00 WtEn= 0.00D+00
 Coeff-Com:  0.995D-04-0.553D-02-0.873D-02-0.978D-02 0.186D-01 0.111D+00
 Coeff-Com:  0.306D+00 0.589D+00
 Coeff:      0.995D-04-0.553D-02-0.873D-02-0.978D-02 0.186D-01 0.111D+00
 Coeff:      0.306D+00 0.589D+00
 Gap=     0.169 Goal=   None    Shift=    0.000
 RMSDP=4.06D-09 MaxDP=2.09D-07 DE= 1.36D-11 OVMax= 8.80D-07

 SCF Done:  E(RPBE1PBE) =  -2107.75041036     A.U. after   17 cycles
            NFock= 17  Conv=0.41D-08     -V/T= 2.0071
 KE= 2.092856777874D+03 PE=-1.200200784510D+04 EE= 4.268632119769D+03
 Leave Link  502 at Fri Jan 24 16:53:29 2025, MaxMem=  3221225472 cpu:            1471.9 elap:              61.4
 (Enter /software/gaussian/G16-C.01/avx2/g16/l601.exe)
 Copying SCF densities to generalized density rwf, IOpCl= 0 IROHF=0.

 **********************************************************************

            Population analysis using the SCF Density.

 **********************************************************************

 Orbital symmetries:
       Occupied  (A) (A) (A) (A) (A) (A) (A) (A) (A) (A) (A) (A)
                 (A) (A) (A) (A) (A) (A) (A) (A) (A) (A) (A) (A)
                 (A) (A) (A) (A) (A) (A) (A) (A) (A) (A) (A) (A)
                 (A) (A) (A) (A) (A) (A) (A) (A) (A) (A) (A) (A)
                 (A) (A) (A) (A) (A) (A) (A) (A) (A) (A) (A) (A)
                 (A) (A) (A) (A) (A) (A) (A) (A) (A) (A) (A) (A)
                 (A) (A) (A) (A) (A) (A) (A) (A) (A) (A) (A) (A)
                 (A) (A) (A) (A) (A) (A) (A) (A) (A) (A) (A) (A)
                 (A) (A) (A) (A) (A) (A) (A) (A) (A) (A) (A) (A)
                 (A) (A) (A) (A) (A) (A) (A) (A) (A) (A) (A) (A)
       Virtual   (A) (A) (A) (A) (A) (A) (A) (A) (A) (A) (A) (A)
                 (A) (A) (A) (A) (A) (A) (A) (A) (A) (A) (A) (A)
                 (A) (A) (A) (A) (A) (A) (A) (A) (A) (A) (A) (A)
                 (A) (A) (A) (A) (A) (A) (A) (A) (A) (A) (A) (A)
                 (A) (A) (A) (A) (A) (A) (A) (A) (A) (A) (A) (A)
                 (A) (A) (A) (A) (A) (A) (A) (A) (A) (A) (A) (A)
                 (A) (A) (A) (A) (A) (A) (A) (A) (A) (A) (A) (A)
                 (A) (A) (A) (A) (A) (A) (A) (A) (A) (A) (A) (A)
                 (A) (A) (A) (A) (A) (A) (A) (A) (A) (A) (A) (A)
                 (A) (A) (A) (A) (A) (A) (A) (A) (A) (A) (A) (A)
                 (A) (A) (A) (A) (A) (A) (A) (A) (A) (A) (A) (A)
                 (A) (A) (A) (A) (A) (A) (A) (A) (A) (A) (A) (A)
                 (A) (A) (A) (A) (A) (A) (A) (A) (A) (A) (A) (A)
                 (A) (A) (A) (A) (A) (A) (A) (A) (A) (A) (A) (A)
                 (A) (A) (A) (A) (A) (A) (A) (A) (A) (A) (A) (A)
                 (A) (A) (A) (A) (A) (A) (A) (A) (A) (A) (A) (A)
                 (A) (A) (A) (A) (A) (A) (A) (A) (A) (A) (A) (A)
                 (A) (A) (A) (A) (A) (A) (A) (A) (A) (A) (A) (A)
                 (A) (A) (A) (A) (A) (A) (A) (A) (A) (A) (A) (A)
                 (A) (A) (A) (A) (A) (A) (A) (A) (A) (A) (A) (A)
                 (A) (A) (A) (A) (A) (A) (A) (A) (A) (A) (A) (A)
                 (A) (A) (A) (A) (A) (A) (A) (A) (A) (A) (A) (A)
                 (A) (A) (A) (A) (A) (A) (A) (A) (A) (A) (A) (A)
                 (A) (A) (A) (A) (A) (A) (A) (A) (A) (A) (A) (A)
                 (A) (A) (A) (A) (A) (A) (A) (A) (A) (A) (A) (A)
                 (A) (A) (A) (A) (A) (A) (A) (A) (A) (A) (A) (A)
                 (A) (A) (A) (A) (A) (A) (A) (A) (A) (A) (A) (A)
                 (A) (A) (A) (A) (A) (A) (A) (A) (A) (A) (A) (A)
                 (A) (A) (A) (A) (A) (A) (A) (A) (A) (A) (A) (A)
                 (A) (A) (A) (A) (A) (A) (A) (A) (A) (A) (A) (A)
                 (A) (A) (A) (A) (A) (A) (A) (A) (A) (A) (A) (A)
                 (A) (A) (A) (A) (A) (A) (A) (A) (A) (A) (A) (A)
                 (A) (A) (A) (A) (A) (A) (A) (A) (A) (A) (A) (A)
                 (A) (A) (A) (A) (A) (A) (A) (A) (A) (A) (A) (A)
 The electronic state is 1-A.
 Alpha  occ. eigenvalues --  -89.24036 -24.94865 -24.93716 -24.93205 -24.92730
 Alpha  occ. eigenvalues --  -24.92464 -24.91474 -24.90343 -24.90178 -24.89217
 Alpha  occ. eigenvalues --  -14.67286 -10.61689 -10.61600 -10.58886 -10.50127
 Alpha  occ. eigenvalues --  -10.45902 -10.44595 -10.40967 -10.40802 -10.39832
 Alpha  occ. eigenvalues --  -10.39677 -10.39550 -10.39384 -10.39206 -10.37989
[...]
    44  H    0.000075   0.000000  -0.000001  -0.000000   0.000000   0.000000
    45  H   -0.012379   0.008402   0.000237  -0.000196   0.000003   0.000001
    46  H    0.000432   0.000012   0.000533   0.000770  -0.016620   0.394405
    47  H   -0.000615   0.000013  -0.000921   0.000005  -0.035481   0.423943
    48  H    0.000113  -0.000000   0.000251   0.000037  -0.035695   0.397031
    49  H   -0.000088   0.000000   0.000002  -0.000192   0.011247  -0.000104
              31         32         33         34         35         36
     1  C    0.496426   0.395715   0.000018   0.000531  -0.000000   0.000001
     2  N   -0.088909  -0.016093  -0.000078  -0.000117  -0.000003  -0.000001
     3  C   -0.054275   0.001702   0.004970   0.006317   0.000108   0.000063
     4  B    0.006479  -0.001175  -0.037711  -0.015564   0.000843  -0.001079
     5  C    0.000745   0.000020   0.402563  -0.059153  -0.002108   0.005851
     6  C   -0.000414  -0.000005  -0.045736   0.388848  -0.018503  -0.060115
     7  C   -0.000046  -0.000000   0.003750  -0.022150   0.395448   0.423974
     8  C    0.000003   0.000000  -0.001056  -0.000154  -0.037792  -0.028615
     9  C   -0.000000  -0.000000   0.000088   0.000156  -0.001687  -0.001232
    10  C    0.000000   0.000000   0.000007   0.000033  -0.000043   0.000186
    11  C   -0.000571   0.000048  -0.001319   0.000922  -0.000023   0.000101
    12  C   -0.000044   0.000023   0.001516  -0.000342   0.000002  -0.000066
    13  C   -0.000027   0.000010   0.000060   0.000156  -0.000003   0.000043
    14  F   -0.000000  -0.000000   0.000633  -0.000056  -0.000002  -0.000082
    15  F   -0.000035  -0.000005   0.000146  -0.000219  -0.000002   0.000005
    16  F   -0.000000   0.000000   0.000026   0.000001  -0.000000  -0.000000
    17  C   -0.000007  -0.000004  -0.000111   0.000004   0.000000  -0.000001
    18  C    0.000004   0.000001  -0.000035  -0.000000  -0.000000   0.000000
    19  C    0.000000  -0.000000  -0.000001  -0.000000  -0.000000   0.000000
    20  F    0.000000   0.000000   0.000000   0.000000   0.000000  -0.000000
    21  F   -0.000000  -0.000000  -0.000000  -0.000000  -0.000000   0.000000
    22  F    0.000000  -0.000000  -0.000000  -0.000000   0.000000  -0.000000
    23  C   -0.000002  -0.000003  -0.000181   0.000000   0.000000  -0.000000
    24  C    0.000560   0.000031   0.002857   0.000205   0.000002   0.000014
    25  C   -0.000062  -0.000002   0.000567   0.000027  -0.000000  -0.000002
    26  F   -0.000000   0.000000   0.000006   0.000000   0.000000  -0.000000
    27  F   -0.000002  -0.000000  -0.000709  -0.000004   0.000001  -0.000001
    28  F   -0.000232   0.000031  -0.000013   0.000001  -0.000000  -0.000000
    29  C    0.409784   0.005381  -0.000293  -0.000574  -0.000167  -0.000023
    30  C   -0.039841   0.000003   0.000191  -0.001836   0.000291  -0.000028
    31  S   15.082143  -0.025679   0.000019  -0.000037   0.000001  -0.000000
    32  H   -0.025679   0.417294  -0.000000   0.000003  -0.000000   0.000000
    33  H    0.000019  -0.000000   0.521890   0.006733   0.000299   0.003912
    34  H   -0.000037   0.000003   0.006733   0.556165  -0.003938   0.005601
    35  H    0.000001  -0.000000   0.000299  -0.003938   0.555060  -0.021442
    36  H   -0.000000   0.000000   0.003912   0.005601  -0.021442   0.534961
    37  H   -0.000000   0.000000   0.000085   0.002570  -0.005040   0.006225
    38  H    0.000000  -0.000000   0.000325   0.000378   0.007155  -0.003972
    39  H    0.000000  -0.000000   0.000003   0.000117   0.003422   0.000217
    40  H    0.000000   0.000000  -0.000008  -0.000043   0.000047   0.003096
    41  H    0.000000  -0.000000  -0.000000  -0.000001  -0.000003  -0.000009
    42  H   -0.000000   0.000000   0.000001   0.000010  -0.000024   0.000093
    43  H   -0.000000  -0.000000  -0.000000  -0.000017   0.000093  -0.000023
    44  H    0.000000  -0.000000   0.000005  -0.000000  -0.000000   0.000000
    45  H   -0.000000  -0.000000   0.000000  -0.000000   0.000000  -0.000000
    46  H   -0.003091  -0.000003   0.000009   0.000166  -0.000004   0.000001
    47  H    0.003853   0.000004   0.000186  -0.000850  -0.000145  -0.000005
    48  H   -0.004106  -0.000002  -0.000019  -0.000108  -0.000005   0.000002
    49  H    0.004783  -0.003804  -0.000045  -0.000034  -0.000000  -0.000000
              37         38         39         40         41         42
     1  C    0.000002  -0.000000  -0.000000   0.000000   0.000000  -0.000000
     2  N   -0.000000  -0.000001   0.000000  -0.000000  -0.000000   0.000000
     3  C    0.000073  -0.000040  -0.000000   0.000000  -0.000000  -0.000000
     4  B    0.000138   0.000795  -0.000008   0.000036   0.000000  -0.000009
     5  C    0.002976  -0.003511  -0.000201   0.000121   0.000002  -0.000019
     6  C   -0.005531  -0.001415  -0.000131   0.001160   0.000017  -0.000017
     7  C   -0.041113  -0.031427  -0.004747  -0.007469  -0.000659  -0.000007
     8  C    0.403284   0.397716  -0.039565  -0.036549   0.011351  -0.006878
     9  C   -0.031596  -0.026710   0.410137   0.407834  -0.038524  -0.035440
    10  C   -0.000356  -0.003751  -0.030367  -0.028776   0.413545   0.409262
    11  C    0.000029  -0.000129  -0.000000   0.000000  -0.000000   0.000000
    12  C   -0.000016   0.000285   0.000000  -0.000000  -0.000000  -0.000000
    13  C   -0.000007   0.000098   0.000000  -0.000000  -0.000000   0.000001
    14  F    0.000003   0.002729  -0.000000   0.000001   0.000000  -0.000005
    15  F   -0.000000   0.000322  -0.000000  -0.000000   0.000000  -0.000000
    16  F    0.000000  -0.000011  -0.000000   0.000000  -0.000000   0.000000
    17  C   -0.000000  -0.000003   0.000000  -0.000000   0.000000   0.000000
    18  C    0.000000  -0.000000  -0.000000   0.000000   0.000000   0.000000
    19  C    0.000000  -0.000000  -0.000000  -0.000000  -0.000000   0.000000
    20  F   -0.000000   0.000000   0.000000  -0.000000  -0.000000   0.000000
    21  F    0.000000   0.000000  -0.000000   0.000000   0.000000  -0.000000
    22  F    0.000000   0.000000   0.000000  -0.000000  -0.000000   0.000000
    23  C   -0.000000   0.000001   0.000000  -0.000000  -0.000000  -0.000000
    24  C    0.000002  -0.000003   0.000000   0.000000  -0.000000   0.000000
    25  C    0.000000  -0.000000  -0.000000   0.000000   0.000000  -0.000000
    26  F   -0.000000   0.000000  -0.000000  -0.000000   0.000000  -0.000000
    27  F    0.000000   0.000000  -0.000000   0.000000   0.000000  -0.000000
    28  F    0.000000  -0.000000  -0.000000   0.000000   0.000000  -0.000000
    29  C   -0.000044  -0.000013  -0.000000  -0.000000  -0.000000  -0.000000
    30  C   -0.000009   0.000005   0.000000  -0.000000   0.000000   0.000000
    31  S   -0.000000   0.000000   0.000000   0.000000   0.000000  -0.000000
    32  H    0.000000  -0.000000  -0.000000   0.000000  -0.000000   0.000000
    33  H    0.000085   0.000325   0.000003  -0.000008  -0.000000   0.000001
    34  H    0.002570   0.000378   0.000117  -0.000043  -0.000001   0.000010
    35  H   -0.005040   0.007155   0.003422   0.000047  -0.000003  -0.000024
    36  H    0.006225  -0.003972   0.000217   0.003096  -0.000009   0.000093
    37  H    0.585568  -0.029404  -0.006635   0.008255  -0.000158  -0.000298
    38  H   -0.029404   0.564727   0.007820  -0.006780  -0.000121   0.004458
    39  H   -0.006635   0.007820   0.587582  -0.032085  -0.004209   0.007705
    40  H    0.008255  -0.006780  -0.032085   0.583993  -0.004253  -0.006129
    41  H   -0.000158  -0.000121  -0.004209  -0.004253   0.519852  -0.020842
    42  H   -0.000298   0.004458   0.007705  -0.006129  -0.020842   0.554249
    43  H    0.004414  -0.000281  -0.006236   0.007642  -0.021151  -0.028065
    44  H   -0.000000  -0.000000  -0.000000   0.000000  -0.000000   0.000000
    45  H   -0.000000   0.000000   0.000000  -0.000000   0.000000  -0.000000
    46  H   -0.000000   0.000000   0.000000  -0.000000  -0.000000   0.000000
    47  H    0.000004  -0.000004   0.000000   0.000000  -0.000000   0.000000
    48  H    0.000002  -0.000000  -0.000000   0.000000  -0.000000  -0.000000
    49  H   -0.000001  -0.000004   0.000000  -0.000000  -0.000000   0.000000
              43         44         45         46         47         48
     1  C    0.000000  -0.000001  -0.000001   0.000372  -0.000203   0.000328
     2  N   -0.000000   0.000007   0.000007   0.000110   0.000299  -0.000228
     3  C   -0.000000  -0.000001   0.000001  -0.010623  -0.014509   0.010281
     4  B    0.000008  -0.000551  -0.000440  -0.001553   0.003933   0.000383
     5  C   -0.000004   0.000019   0.000029   0.000311   0.006850  -0.000731
     6  C    0.000104  -0.000004  -0.000001   0.000598  -0.000176  -0.000200
     7  C    0.000014  -0.000000  -0.000000  -0.000027   0.000147   0.000095
     8  C   -0.006936   0.000000  -0.000000   0.000002   0.000085  -0.000012
     9  C   -0.035151  -0.000000   0.000000  -0.000000  -0.000001  -0.000000
    10  C    0.407555  -0.000000  -0.000000   0.000000   0.000000  -0.000000
    11  C   -0.000000   0.012069   0.014024   0.000009   0.000172  -0.000037
    12  C    0.000000  -0.047083  -0.002555   0.000001   0.000091  -0.000000
    13  C    0.000000  -0.014047   0.000059   0.000001   0.000002  -0.000001
    14  F    0.000000  -0.000280  -0.000000   0.000000   0.000001  -0.000000
    15  F   -0.000000   0.000246  -0.000001  -0.000000   0.000004   0.000000
    16  F    0.000000   0.008816   0.000001   0.000000   0.000000   0.000000
    17  C   -0.000000   0.433094   0.010795   0.000000  -0.000000   0.000000
    18  C   -0.000000  -0.049376  -0.051317  -0.000000  -0.000000  -0.000000
    19  C   -0.000000  -0.005293  -0.005888   0.000000   0.000000   0.000000
    20  F   -0.000000   0.009121   0.000313   0.000000  -0.000000   0.000000
    21  F    0.000000   0.000440   0.000407   0.000000   0.000000  -0.000000
    22  F   -0.000000   0.000333   0.009208  -0.000000  -0.000000   0.000000
    23  C    0.000000   0.009938   0.437666  -0.000002  -0.000006  -0.000001
    24  C   -0.000000  -0.002085  -0.054342   0.000036  -0.000083  -0.000013
    25  C    0.000000   0.000075  -0.012379   0.000432  -0.000615   0.000113
    26  F   -0.000000   0.000000   0.008402   0.000012   0.000013  -0.000000
    27  F    0.000000  -0.000001   0.000237   0.000533  -0.000921   0.000251
    28  F    0.000000  -0.000000  -0.000196   0.000770   0.000005   0.000037
    29  C   -0.000000   0.000000   0.000003  -0.016620  -0.035481  -0.035695
    30  C   -0.000000   0.000000   0.000001   0.394405   0.423943   0.397031
    31  S   -0.000000   0.000000  -0.000000  -0.003091   0.003853  -0.004106
    32  H   -0.000000  -0.000000  -0.000000  -0.000003   0.000004  -0.000002
    33  H   -0.000000   0.000005   0.000000   0.000009   0.000186  -0.000019
    34  H   -0.000017  -0.000000  -0.000000   0.000166  -0.000850  -0.000108
    35  H    0.000093  -0.000000   0.000000  -0.000004  -0.000145  -0.000005
    36  H   -0.000023   0.000000  -0.000000   0.000001  -0.000005   0.000002
    37  H    0.004414  -0.000000  -0.000000  -0.000000   0.000004   0.000002
    38  H   -0.000281  -0.000000   0.000000   0.000000  -0.000004  -0.000000
    39  H   -0.006236  -0.000000   0.000000   0.000000   0.000000  -0.000000
    40  H    0.007642   0.000000  -0.000000  -0.000000   0.000000   0.000000
    41  H   -0.021151  -0.000000   0.000000  -0.000000  -0.000000  -0.000000
    42  H   -0.028065   0.000000  -0.000000   0.000000   0.000000  -0.000000
    43  H    0.558393   0.000000  -0.000000   0.000000  -0.000000   0.000000
    44  H    0.000000   0.460655  -0.000063  -0.000000  -0.000000   0.000000
    45  H   -0.000000  -0.000063   0.462340  -0.000000  -0.000000   0.000000
    46  H    0.000000  -0.000000  -0.000000   0.487091  -0.010512  -0.019954
    47  H   -0.000000  -0.000000  -0.000000  -0.010512   0.455593  -0.016073
    48  H    0.000000   0.000000   0.000000  -0.019954  -0.016073   0.496269
    49  H    0.000000   0.000003  -0.000000   0.000003  -0.000018   0.000014
              49
     1  C   -0.036114
     2  N    0.366003
     3  C   -0.038711
     4  B   -0.007387
     5  C   -0.000425
     6  C    0.000240
     7  C    0.000008
     8  C   -0.000003
     9  C   -0.000000
    10  C   -0.000000
    11  C    0.007819
    12  C   -0.003481
    13  C    0.001797
    14  F    0.000233
    15  F    0.011127
    16  F    0.000115
    17  C   -0.000265
    18  C   -0.000036
    19  C   -0.000003
    20  F    0.000000
    21  F   -0.000000
    22  F    0.000000
    23  C   -0.000207
    24  C    0.000822
    25  C   -0.000088
    26  F    0.000000
    27  F    0.000002
    28  F   -0.000192
    29  C    0.011247
    30  C   -0.000104
    31  S    0.004783
    32  H   -0.003804
    33  H   -0.000045
    34  H   -0.000034
    35  H   -0.000000
    36  H   -0.000000
    37  H   -0.000001
    38  H   -0.000004
    39  H    0.000000
    40  H   -0.000000
    41  H   -0.000000
    42  H    0.000000
    43  H    0.000000
    44  H    0.000003
    45  H   -0.000000
    46  H    0.000003
    47  H   -0.000018
    48  H    0.000014
    49  H    0.404479
 Mulliken charges:
               1
     1  C   -0.044983
     2  N   -0.041548
     3  C   -0.035205
     4  B    0.043665
     5  C   -0.275018
     6  C    0.069106
     7  C   -0.189661
     8  C   -0.269629
     9  C   -0.173729
    10  C   -0.363683
    11  C   -0.142714
    12  C    0.086927
    13  C    0.502796
    14  F   -0.134168
    15  F   -0.200473
    16  F   -0.130348
    17  C   -0.332493
    18  C    0.186148
    19  C    0.447349
    20  F   -0.145667
    21  F   -0.143211
    22  F   -0.145249
    23  C   -0.347744
    24  C    0.096780
    25  C    0.483430
    26  F   -0.127253
    27  F   -0.156436
    28  F   -0.160856
    29  C    0.015040
    30  C   -0.358879
    31  S    0.212581
    32  H    0.226509
    33  H    0.136451
    34  H    0.136253
    35  H    0.128164
    36  H    0.132350
    37  H    0.106581
    38  H    0.120765
    39  H    0.107181
    40  H    0.109908
    41  H    0.145161
    42  H    0.121956
    43  H    0.119640
    44  H    0.183963
    45  H    0.183692
    46  H    0.177528
    47  H    0.184417
    48  H    0.172378
    49  H    0.282227
 Sum of Mulliken charges =   1.00000
 Mulliken charges with hydrogens summed into heavy atoms:
               1
     1  C    0.181526
     2  N    0.240679
     3  C   -0.035205
     4  B    0.043665
     5  C   -0.138567
     6  C    0.205359
     7  C    0.070853
     8  C   -0.042283
     9  C    0.043360
    10  C    0.023074
    11  C   -0.142714
    12  C    0.086927
    13  C    0.502796
    14  F   -0.134168
    15  F   -0.200473
    16  F   -0.130348
    17  C   -0.148531
    18  C    0.186148
    19  C    0.447349
    20  F   -0.145667
    21  F   -0.143211
    22  F   -0.145249
    23  C   -0.164052
    24  C    0.096780
    25  C    0.483430
    26  F   -0.127253
    27  F   -0.156436
    28  F   -0.160856
    29  C    0.015040
    30  C    0.175444
    31  S    0.212581
 Electronic spatial extent (au):  <R**2>=          14948.9513
 Charge=              1.0000 electrons
 Dipole moment (field-independent basis, Debye):
    X=             -6.5793    Y=              7.5544    Z=              4.3414  Tot=             10.9180
 Quadrupole moment (field-independent basis, Debye-Ang):
   XX=           -148.6356   YY=           -142.1785   ZZ=           -156.1354
   XY=             -9.1948   XZ=              1.6215   YZ=             16.6100
 Traceless Quadrupole moment (field-independent basis, Debye-Ang):
   XX=              0.3475   YY=              6.8047   ZZ=             -7.1522
   XY=             -9.1948   XZ=              1.6215   YZ=             16.6100
 Octapole moment (field-independent basis, Debye-Ang**2):
  XXX=            -44.3381  YYY=             90.6980  ZZZ=             71.7919  XYY=            -42.3086
  XXY=             -6.9057  XXZ=            -34.1452  XZZ=             17.0417  YZZ=             49.6454
  YYZ=             42.7230  XYZ=            -23.9414
 Hexadecapole moment (field-independent basis, Debye-Ang**3):
 XXXX=         -10157.3549 YYYY=          -5073.8426 ZZZZ=          -1669.4388 XXXY=            156.6117
 XXXZ=             31.2686 YYYX=           -291.4479 YYYZ=             43.4159 ZZZX=            -89.4915
 ZZZY=             97.2054 XXYY=          -2489.9958 XXZZ=          -2078.6962 YYZZ=          -1069.4430
 XXYZ=             -1.2532 YYXZ=             -8.6234 ZZXY=            -73.6782
 N-N= 3.564206302918D+03 E-N=-1.207764884498D+04  KE= 2.102211251892D+03
 No NMR shielding tensors so no spin-rotation constants.
 Leave Link  601 at Fri Jan 24 17:43:08 2025, MaxMem=  3221225472 cpu:              19.3 elap:               1.0
 (Enter /software/gaussian/G16-C.01/avx2/g16/l9999.exe)
 Unable to Open any file for archive entry.
 1\1\GINC-NODE22\SP\RPBE1PBE\def2TZVP\C19H18B1F9N1S1(1+)\LAPLAZA\24-Jan
 -2025\0\\#p def2tzvp pbe1pbe integral=ultrafinegrid geom=allcheck gues
 s=read em=gd3bj\\with_proton\\1,1\C,0,-1.3714476924,-3.1470490372,2.62
 99813323\N,0,-1.1697562529,-1.9635576081,2.0854328556\C,0,-0.825266847
 9,-1.9462186362,0.7474512209\B,0,-0.6757814413,-0.5635819318,-0.011876
 4182\C,0,0.5202832512,-0.2461389425,-0.8937041125\C,0,1.697287975,-0.9
 079252738,-0.7787473056\C,0,2.9797844158,-0.5111107938,-1.4073353282\C
 ,0,3.9609109284,0.04212761,-0.3632588496\C,0,5.2974795007,0.4527020978
 ,-0.9662000442\C,0,6.2631270467,1.0142127273,0.0640478967\C,0,-1.80951
 53631,0.5131943526,0.2757721826\C,0,-1.585810485,1.6345345303,1.094031
 4608\C,0,-0.2557880244,1.7961642245,1.7857082062\F,0,0.7116447671,2.18
 41895098,0.9649240819\F,0,0.1347550869,0.5926402962,2.3014589394\F,0,-
 0.3106515954,2.6475414305,2.7952926137\C,0,-2.5687918607,2.6000339373,
 1.2999550701\C,0,-3.8088371628,2.467289477,0.6838778335\C,0,-4.8911270
 863,3.4912012647,0.9364835355\F,0,-4.3684135852,4.6920485883,1.1678281
 849\F,0,-5.6151247074,3.1491590746,2.0026056429\F,0,-5.714851823,3.582
 0149861,-0.1034079055\C,0,-4.0683277742,1.3635732729,-0.1218128512\C,0
 ,-3.0830609898,0.3971986198,-0.3052406977\C,0,-3.4084694336,-0.8270920
 887,-1.1196971786\F,0,-4.4003098695,-0.6335458947,-1.9684091451\F,0,-2
 .3298594796,-1.230076359,-1.8221339844\F,0,-3.7408109983,-1.8578872267
 ,-0.3262086205\C,0,-0.7803264072,-3.2285830504,0.2498441196\C,0,-0.527
 5233922,-3.6977702152,-1.1377487629\S,0,-1.1743890929,-4.3745282364,1.
 4973508931\H,0,-1.6193952245,-3.2965077794,3.6816160082\H,0,0.49977415
 64,0.6416823248,-1.5360076746\H,0,1.7497709024,-1.7719103152,-0.099758
 3314\H,0,3.4377721527,-1.3935868155,-1.8890694854\H,0,2.8036502152,0.2
 410604314,-2.1922792742\H,0,4.1272390579,-0.7146490431,0.42417098\H,0,
 3.4938388453,0.9070503876,0.1390241387\H,0,5.7505296436,-0.4192194408,
 -1.4694238455\H,0,5.1211768639,1.1997637298,-1.7593529119\H,0,7.217068
 0151,1.3050779486,-0.3992998689\H,0,5.8480912029,1.9073028485,0.557448
 0712\H,0,6.4877552983,0.2751198448,0.8494115017\H,0,-2.3657062938,3.46
 0612717,1.9394766129\H,0,-5.0376941219,1.2583853401,-0.6123900466\H,0,
 -1.4528587123,-4.0893704087,-1.5877665752\H,0,-0.1762941809,-2.8621171
 884,-1.7538518769\H,0,0.2278572197,-4.4967402463,-1.1614750605\H,0,-1.
 2107632968,-1.0960920206,2.6228045928\\Version=ES64L-G16RevC.01\State=
 1-A\HF=-2109.8747696\RMSD=9.393e-09\Dipole=1.2502925,-3.9520251,1.1266
 594\Quadrupole=-4.4305106,11.9657734,-7.5352628,-2.4332413,-6.4649884,
 -8.3751286\PG=C01 [X(C19H18B1F9N1S1)]\\@
 The archive entry for this job was punched.


 SUCCESS-- IF YOU HAVE TRIED TO DO SOMETHING AND FAILED
           YOU ARE BETTER OFF THAN IF YOU HAD TRIED TO DO
           NOTHING AND SUCCEEDED.

                   -- FROM THE BACK OF A SUGAR PACKET
 Job cpu time:       0 days  4 hours 10 minutes 50.5 seconds.
 Elapsed time:       0 days  0 hours 10 minutes 27.4 seconds.
 File lengths (MBytes):  RWF=    603 Int=      0 D2E=      0 Chk=     82 Scr=      1
 Normal termination of Gaussian 16 at Fri Jan 24 17:43:08 2025.
