 Entering Gaussian System, Link 0=g16
 Input=with_hydride.com
 Output=with_hydride.log
 Initial command:
 /software/gaussian/G16-C.01/avx2/g16/l1.exe "/scratch/laplaza/9953608.slurm/Gau-48119.inp" -scrdir="/scratch/laplaza/9953608.slurm/"
 Entering Link 1 = /software/gaussian/G16-C.01/avx2/g16/l1.exe PID=     48120.
  
 Copyright (c) 1988-2019, Gaussian, Inc.  All Rights Reserved.
  
 This is part of the Gaussian(R) 16 program.  It is based on
 the Gaussian(R) 09 system (copyright 2009, Gaussian, Inc.),
 the Gaussian(R) 03 system (copyright 2003, Gaussian, Inc.),
 the Gaussian(R) 98 system (copyright 1998, Gaussian, Inc.),
 the Gaussian(R) 94 system (copyright 1995, Gaussian, Inc.),
 the Gaussian 92(TM) system (copyright 1992, Gaussian, Inc.),
 the Gaussian 90(TM) system (copyright 1990, Gaussian, Inc.),
 the Gaussian 88(TM) system (copyright 1988, Gaussian, Inc.),
 the Gaussian 86(TM) system (copyright 1986, Carnegie Mellon
 University), and the Gaussian 82(TM) system (copyright 1983,
 Carnegie Mellon University). Gaussian is a federally registered
 trademark of Gaussian, Inc.
  
 This software contains proprietary and confidential information,
 including trade secrets, belonging to Gaussian, Inc.
  
 This software is provided under written license and may be
 used, copied, transmitted, or stored only in accord with that
 written license.
  
 The following legend is applicable only to US Government
 contracts under FAR:
  
                    RESTRICTED RIGHTS LEGEND
  
 Use, reproduction and disclosure by the US Government is
 subject to restrictions as set forth in subparagraphs (a)
 and (c) of the Commercial Computer Software - Restricted
 Rights clause in FAR 52.227-19.
  
 Gaussian, Inc.
 340 Quinnipiac St., Bldg. 40, Wallingford CT 06492
  
  
 ---------------------------------------------------------------
 Warning -- This program may not be used in any manner that
 competes with the business of Gaussian, Inc. or will provide
 assistance to any competitor of Gaussian, Inc.  The licensee
 of this program is prohibited from giving any competitor of
 Gaussian, Inc. access to this program.  By using this program,
 the user acknowledges that Gaussian, Inc. is engaged in the
 business of creating and licensing software in the field of
 computational chemistry and represents and warrants to the
 licensee that it is not a competitor of Gaussian, Inc. and that
 it will not use this program in any manner prohibited above.
 ---------------------------------------------------------------
  

 Cite this work as:
 Gaussian 16, Revision C.01,
 M. J. Frisch, G. W. Trucks, H. B. Schlegel, G. E. Scuseria, 
 M. A. Robb, J. R. Cheeseman, G. Scalmani, V. Barone, 
 G. A. Petersson, H. Nakatsuji, X. Li, M. Caricato, A. V. Marenich, 
 J. Bloino, B. G. Janesko, R. Gomperts, B. Mennucci, H. P. Hratchian, 
 J. V. Ortiz, A. F. Izmaylov, J. L. Sonnenberg, D. Williams-Young, 
 F. Ding, F. Lipparini, F. Egidi, J. Goings, B. Peng, A. Petrone, 
 T. Henderson, D. Ranasinghe, V. G. Zakrzewski, J. Gao, N. Rega, 
 G. Zheng, W. Liang, M. Hada, M. Ehara, K. Toyota, R. Fukuda, 
 J. Hasegawa, M. Ishida, T. Nakajima, Y. Honda, O. Kitao, H. Nakai, 
 T. Vreven, K. Throssell, J. A. Montgomery, Jr., J. E. Peralta, 
 F. Ogliaro, M. J. Bearpark, J. J. Heyd, E. N. Brothers, K. N. Kudin, 
 V. N. Staroverov, T. A. Keith, R. Kobayashi, J. Normand, 
 K. Raghavachari, A. P. Rendell, J. C. Burant, S. S. Iyengar, 
 J. Tomasi, M. Cossi, J. M. Millam, M. Klene, C. Adamo, R. Cammi, 
 J. W. Ochterski, R. L. Martin, K. Morokuma, O. Farkas, 
 J. B. Foresman, and D. J. Fox, Gaussian, Inc., Wallingford CT, 2019.
 
 ******************************************
 Gaussian 16:  ES64L-G16RevC.01  3-Jul-2019
                24-Jan-2025 
 ******************************************
 %nprocshared=24
 Will use up to   24 processors via shared memory.
 %mem=24GB
 %chk=with_hydride.chk
 -------------------------------------------------------------------
 #p opt freq=noraman def2svp pbe1pbe em=gd3bj integral=ultrafinegrid
 -------------------------------------------------------------------
 1/18=20,19=15,26=4,38=1/1,3;
 2/9=110,12=2,17=6,18=5,40=1/2;
 3/5=43,7=101,11=2,25=1,30=1,71=1,74=-13,75=-5,124=41/1,2,3;
 4//1;
 5/5=2,38=5/2;
 6/7=2,8=2,9=2,10=2,28=1/1;
 7//1,2,3,16;
 1/18=20,19=15,26=4/3(2);
 2/9=110/2;
 99//99;
 2/9=110/2;
 3/5=43,7=101,11=2,25=1,30=1,71=1,74=-13,75=-5,124=41/1,2,3;
 4/5=5,16=3,69=1/1;
 5/5=2,38=5/2;
 7//1,2,3,16;
 1/18=20,19=15,26=4/3(-5);
 2/9=110/2;
 6/7=2,8=2,9=2,10=2,19=2,28=1/1;
 99/9=1/99;
 Leave Link    1 at Fri Jan 24 16:52:24 2025, MaxMem=  3221225472 cpu:               1.8 elap:               0.1
 (Enter /software/gaussian/G16-C.01/avx2/g16/l101.exe)
 ------------
 with_hydride
 ------------
 Symbolic Z-matrix:
 Charge = -1 Multiplicity = 1
 C                    -2.01661  -3.52781   2.38493 
 N                    -1.7319   -2.26433   1.9895 
 C                    -1.07455  -2.19965   0.79614 
 B                    -0.69789  -0.81816   0.16887 
 C                     0.67821  -0.57981  -0.56231 
 C                     1.76343  -1.30389  -0.28624 
 C                     3.07152  -1.023    -0.952 
 C                     3.69768   0.29549  -0.4628 
 C                     5.05836   0.55245  -1.1104 
 C                     5.68535   1.84415  -0.59209 
 C                    -1.69079   0.43675   0.38265 
 C                    -1.37629   1.44932   1.31164 
 C                    -0.09046   1.38966   2.14815 
 F                     1.00242   1.65996   1.35317 
 F                     0.05403   0.17444   2.75837 
 F                    -0.11547   2.36317   3.17121 
 C                    -2.23874   2.51418   1.47203 
 C                    -3.42946   2.61341   0.73523 
 C                    -4.37099   3.77695   0.94682 
 F                    -3.69733   4.92038   1.31592 
 F                    -5.26009   3.43527   1.96281 
 F                    -5.11958   4.04359  -0.17892 
 C                    -3.76057   1.5968   -0.14788 
 C                    -2.90288   0.50068  -0.34848 
 C                    -3.29605  -0.55545  -1.40072 
 F                    -4.4051   -0.20133  -2.10705 
 F                    -2.26485  -0.80837  -2.27448 
 F                    -3.58164  -1.73577  -0.71964 
 C                    -0.87603  -3.46223   0.2178 
 C                    -0.24574  -3.75845  -1.11691 
 S                    -1.47545  -4.62565   1.2349 
 H                    -2.53566  -3.77673   3.2844 
 H                     0.74503   0.29333  -1.21583 
 H                     1.72395  -2.13102   0.41414 
 H                     3.7713   -1.85998  -0.76034 
 H                     2.93059  -0.93385  -2.06488 
 H                     3.8266    0.22813   0.63608 
 H                     3.02123   1.1465   -0.65235 
 H                     5.75184  -0.28652  -0.86853 
 H                     4.93435   0.62932  -2.19504 
 H                     6.67474   2.00017  -1.06191 
 H                     5.00892   2.71744  -0.80861 
 H                     5.82256   1.79456   0.5113 
 H                    -2.01734   3.3068    2.17197 
 H                    -4.71335   1.64748  -0.68896 
 H                    -0.70494  -4.66497  -1.5639 
 H                    -0.39419  -2.92147  -1.82305 
 H                     0.8492   -3.96055  -0.99503 
 H                    -0.65194  -0.0344    0.93934 
 
 ITRead=  0  0  0  0  0  0  0  0  0  0  0  0  0  0  0  0  0  0  0  0
 ITRead=  0  0  0  0  0  0  0  0  0  0  0  0  0  0  0  0  0  0  0  0
 ITRead=  0  0  0  0  0  0  0  0  0
 MicOpt= -1 -1 -1 -1 -1 -1 -1 -1 -1 -1 -1 -1 -1 -1 -1 -1 -1 -1 -1 -1
 MicOpt= -1 -1 -1 -1 -1 -1 -1 -1 -1 -1 -1 -1 -1 -1 -1 -1 -1 -1 -1 -1
 MicOpt= -1 -1 -1 -1 -1 -1 -1 -1 -1
 NAtoms=     49 NQM=       49 NQMF=       0 NMMI=      0 NMMIF=      0
                NMic=       0 NMicF=      0.
                    Isotopes and Nuclear Properties:
 (Nuclear quadrupole moments (NQMom) in fm**2, nuclear magnetic moments (NMagM)
  in nuclear magnetons)

  Atom         1           2           3           4           5           6           7           8           9          10
 IAtWgt=          12          14          12          11          12          12          12          12          12          12
 AtmWgt=  12.0000000  14.0030740  12.0000000  11.0093053  12.0000000  12.0000000  12.0000000  12.0000000  12.0000000  12.0000000
 NucSpn=           0           2           0           3           0           0           0           0           0           0
 AtZEff=  -0.0000000  -0.0000000  -0.0000000  -0.0000000  -0.0000000  -0.0000000  -0.0000000  -0.0000000  -0.0000000  -0.0000000
 NQMom=    0.0000000   2.0440000   0.0000000   4.0590000   0.0000000   0.0000000   0.0000000   0.0000000   0.0000000   0.0000000
 NMagM=    0.0000000   0.4037610   0.0000000   2.6886370   0.0000000   0.0000000   0.0000000   0.0000000   0.0000000   0.0000000
 AtZNuc=   6.0000000   7.0000000   6.0000000   5.0000000   6.0000000   6.0000000   6.0000000   6.0000000   6.0000000   6.0000000

  Atom        11          12          13          14          15          16          17          18          19          20
 IAtWgt=          12          12          12          19          19          19          12          12          12          19
 AtmWgt=  12.0000000  12.0000000  12.0000000  18.9984032  18.9984032  18.9984032  12.0000000  12.0000000  12.0000000  18.9984032
 NucSpn=           0           0           0           1           1           1           0           0           0           1
 AtZEff=  -0.0000000  -0.0000000  -0.0000000  -0.0000000  -0.0000000  -0.0000000  -0.0000000  -0.0000000  -0.0000000  -0.0000000
 NQMom=    0.0000000   0.0000000   0.0000000   0.0000000   0.0000000   0.0000000   0.0000000   0.0000000   0.0000000   0.0000000
 NMagM=    0.0000000   0.0000000   0.0000000   2.6288670   2.6288670   2.6288670   0.0000000   0.0000000   0.0000000   2.6288670
 AtZNuc=   6.0000000   6.0000000   6.0000000   9.0000000   9.0000000   9.0000000   6.0000000   6.0000000   6.0000000   9.0000000

  Atom        21          22          23          24          25          26          27          28          29          30
 IAtWgt=          19          19          12          12          12          19          19          19          12          12
 AtmWgt=  18.9984032  18.9984032  12.0000000  12.0000000  12.0000000  18.9984032  18.9984032  18.9984032  12.0000000  12.0000000
 NucSpn=           1           1           0           0           0           1           1           1           0           0
 AtZEff=  -0.0000000  -0.0000000  -0.0000000  -0.0000000  -0.0000000  -0.0000000  -0.0000000  -0.0000000  -0.0000000  -0.0000000
 NQMom=    0.0000000   0.0000000   0.0000000   0.0000000   0.0000000   0.0000000   0.0000000   0.0000000   0.0000000   0.0000000
 NMagM=    2.6288670   2.6288670   0.0000000   0.0000000   0.0000000   2.6288670   2.6288670   2.6288670   0.0000000   0.0000000
 AtZNuc=   9.0000000   9.0000000   6.0000000   6.0000000   6.0000000   9.0000000   9.0000000   9.0000000   6.0000000   6.0000000

  Atom        31          32          33          34          35          36          37          38          39          40
 IAtWgt=          32           1           1           1           1           1           1           1           1           1
 AtmWgt=  31.9720718   1.0078250   1.0078250   1.0078250   1.0078250   1.0078250   1.0078250   1.0078250   1.0078250   1.0078250
 NucSpn=           0           1           1           1           1           1           1           1           1           1
 AtZEff=  -0.0000000  -0.0000000  -0.0000000  -0.0000000  -0.0000000  -0.0000000  -0.0000000  -0.0000000  -0.0000000  -0.0000000
 NQMom=    0.0000000   0.0000000   0.0000000   0.0000000   0.0000000   0.0000000   0.0000000   0.0000000   0.0000000   0.0000000
 NMagM=    0.0000000   2.7928460   2.7928460   2.7928460   2.7928460   2.7928460   2.7928460   2.7928460   2.7928460   2.7928460
 AtZNuc=  16.0000000   1.0000000   1.0000000   1.0000000   1.0000000   1.0000000   1.0000000   1.0000000   1.0000000   1.0000000

  Atom        41          42          43          44          45          46          47          48          49
 IAtWgt=           1           1           1           1           1           1           1           1           1
 AtmWgt=   1.0078250   1.0078250   1.0078250   1.0078250   1.0078250   1.0078250   1.0078250   1.0078250   1.0078250
 NucSpn=           1           1           1           1           1           1           1           1           1
 AtZEff=  -0.0000000  -0.0000000  -0.0000000  -0.0000000  -0.0000000  -0.0000000  -0.0000000  -0.0000000  -0.0000000
 NQMom=    0.0000000   0.0000000   0.0000000   0.0000000   0.0000000   0.0000000   0.0000000   0.0000000   0.0000000
 NMagM=    2.7928460   2.7928460   2.7928460   2.7928460   2.7928460   2.7928460   2.7928460   2.7928460   2.7928460
 AtZNuc=   1.0000000   1.0000000   1.0000000   1.0000000   1.0000000   1.0000000   1.0000000   1.0000000   1.0000000
 Leave Link  101 at Fri Jan 24 16:52:24 2025, MaxMem=  3221225472 cpu:               9.6 elap:               0.4
 (Enter /software/gaussian/G16-C.01/avx2/g16/l103.exe)

 GradGradGradGradGradGradGradGradGradGradGradGradGradGradGradGradGradGrad
 Berny optimization.
 Initialization pass.
                           ----------------------------
                           !    Initial Parameters    !
                           ! (Angstroms and Degrees)  !
 --------------------------                            --------------------------
 ! Name  Definition              Value          Derivative Info.                !
 --------------------------------------------------------------------------------
 ! R1    R(1,2)                  1.3542         estimate D2E/DX2                !
 ! R2    R(1,31)                 1.6795         estimate D2E/DX2                !
 ! R3    R(1,32)                 1.0679         estimate D2E/DX2                !
 ! R4    R(2,3)                  1.364          estimate D2E/DX2                !
 ! R5    R(3,4)                  1.5633         estimate D2E/DX2                !
 ! R6    R(3,29)                 1.4029         estimate D2E/DX2                !
 ! R7    R(4,5)                  1.5764         estimate D2E/DX2                !
 ! R8    R(4,11)                 1.6144         estimate D2E/DX2                !
 ! R9    R(4,49)                 1.1            estimate D2E/DX2                !
 ! R10   R(5,6)                  1.3335         estimate D2E/DX2                !
 ! R11   R(5,33)                 1.0927         estimate D2E/DX2                !
 ! R12   R(6,7)                  1.4944         estimate D2E/DX2                !
 ! R13   R(6,34)                 1.0845         estimate D2E/DX2                !
 ! R14   R(7,8)                  1.5394         estimate D2E/DX2                !
 ! R15   R(7,35)                 1.1077         estimate D2E/DX2                !
 ! R16   R(7,36)                 1.1253         estimate D2E/DX2                !
 ! R17   R(8,9)                  1.5287         estimate D2E/DX2                !
 ! R18   R(8,37)                 1.1085         estimate D2E/DX2                !
 ! R19   R(8,38)                 1.1035         estimate D2E/DX2                !
 ! R20   R(9,10)                 1.5265         estimate D2E/DX2                !
 ! R21   R(9,39)                 1.115          estimate D2E/DX2                !
 ! R22   R(9,40)                 1.0944         estimate D2E/DX2                !
 ! R23   R(10,41)                1.1063         estimate D2E/DX2                !
 ! R24   R(10,42)                1.1256         estimate D2E/DX2                !
 ! R25   R(10,43)                1.113          estimate D2E/DX2                !
 ! R26   R(11,12)                1.4097         estimate D2E/DX2                !
 ! R27   R(11,24)                1.417          estimate D2E/DX2                !
 ! R28   R(11,49)                1.2693         estimate D2E/DX2                !
 ! R29   R(12,13)                1.5351         estimate D2E/DX2                !
 ! R30   R(12,17)                1.3797         estimate D2E/DX2                !
 ! R31   R(13,14)                1.3782         estimate D2E/DX2                !
 ! R32   R(13,15)                1.3675         estimate D2E/DX2                !
 ! R33   R(13,16)                1.4124         estimate D2E/DX2                !
 ! R34   R(17,18)                1.4038         estimate D2E/DX2                !
 ! R35   R(17,44)                1.0804         estimate D2E/DX2                !
 ! R36   R(18,19)                1.5116         estimate D2E/DX2                !
 ! R37   R(18,23)                1.3867         estimate D2E/DX2                !
 ! R38   R(19,20)                1.3775         estimate D2E/DX2                !
 ! R39   R(19,21)                1.3927         estimate D2E/DX2                !
 ! R40   R(19,22)                1.378          estimate D2E/DX2                !
 ! R41   R(23,24)                1.4062         estimate D2E/DX2                !
 ! R42   R(23,45)                1.0969         estimate D2E/DX2                !
 ! R43   R(24,25)                1.5418         estimate D2E/DX2                !
 ! R44   R(25,26)                1.3617         estimate D2E/DX2                !
 ! R45   R(25,27)                1.3751         estimate D2E/DX2                !
 ! R46   R(25,28)                1.3923         estimate D2E/DX2                !
 ! R47   R(29,30)                1.5055         estimate D2E/DX2                !
 ! R48   R(29,31)                1.6575         estimate D2E/DX2                !
 ! R49   R(30,46)                1.1102         estimate D2E/DX2                !
 ! R50   R(30,47)                1.1051         estimate D2E/DX2                !
 ! R51   R(30,48)                1.1201         estimate D2E/DX2                !
 ! A1    A(2,1,31)             110.0109         estimate D2E/DX2                !
 ! A2    A(2,1,32)             124.4448         estimate D2E/DX2                !
 ! A3    A(31,1,32)            125.5209         estimate D2E/DX2                !
 ! A4    A(1,2,3)              113.6437         estimate D2E/DX2                !
 ! A5    A(2,3,4)              120.6026         estimate D2E/DX2                !
 ! A6    A(2,3,29)             112.7193         estimate D2E/DX2                !
 ! A7    A(4,3,29)             126.5723         estimate D2E/DX2                !
 ! A8    A(3,4,5)              122.0083         estimate D2E/DX2                !
 ! A9    A(3,4,11)             119.0523         estimate D2E/DX2                !
 ! A10   A(3,4,49)             111.0186         estimate D2E/DX2                !
 ! A11   A(5,4,11)             118.7353         estimate D2E/DX2                !
 ! A12   A(5,4,49)             100.4096         estimate D2E/DX2                !
 ! A13   A(4,5,6)              122.1595         estimate D2E/DX2                !
 ! A14   A(4,5,33)             116.8471         estimate D2E/DX2                !
 ! A15   A(6,5,33)             120.5281         estimate D2E/DX2                !
 ! A16   A(5,6,7)              121.202          estimate D2E/DX2                !
 ! A17   A(5,6,34)             121.2112         estimate D2E/DX2                !
 ! A18   A(7,6,34)             117.5749         estimate D2E/DX2                !
 ! A19   A(6,7,8)              112.052          estimate D2E/DX2                !
 ! A20   A(6,7,35)             109.5041         estimate D2E/DX2                !
 ! A21   A(6,7,36)             110.2338         estimate D2E/DX2                !
 ! A22   A(8,7,35)             109.5862         estimate D2E/DX2                !
 ! A23   A(8,7,36)             107.2993         estimate D2E/DX2                !
 ! A24   A(35,7,36)            108.0654         estimate D2E/DX2                !
 ! A25   A(7,8,9)              111.8013         estimate D2E/DX2                !
 ! A26   A(7,8,37)             108.0774         estimate D2E/DX2                !
 ! A27   A(7,8,38)             110.8911         estimate D2E/DX2                !
 ! A28   A(9,8,37)             109.066          estimate D2E/DX2                !
 ! A29   A(9,8,38)             110.0738         estimate D2E/DX2                !
 ! A30   A(37,8,38)            106.7647         estimate D2E/DX2                !
 ! A31   A(8,9,10)             111.3451         estimate D2E/DX2                !
 ! A32   A(8,9,39)             109.5858         estimate D2E/DX2                !
 ! A33   A(8,9,40)             109.3173         estimate D2E/DX2                !
 ! A34   A(10,9,39)            107.9132         estimate D2E/DX2                !
 ! A35   A(10,9,40)            108.8819         estimate D2E/DX2                !
 ! A36   A(39,9,40)            109.7738         estimate D2E/DX2                !
 ! A37   A(9,10,41)            110.0267         estimate D2E/DX2                !
 ! A38   A(9,10,42)            110.1419         estimate D2E/DX2                !
 ! A39   A(9,10,43)            110.4596         estimate D2E/DX2                !
 ! A40   A(41,10,42)           110.2613         estimate D2E/DX2                !
 ! A41   A(41,10,43)           108.4839         estimate D2E/DX2                !
 ! A42   A(42,10,43)           107.4182         estimate D2E/DX2                !
 ! A43   A(4,11,12)            120.5567         estimate D2E/DX2                !
 ! A44   A(4,11,24)            119.5274         estimate D2E/DX2                !
 ! A45   A(12,11,24)           119.8987         estimate D2E/DX2                !
 ! A46   A(12,11,49)            78.1707         estimate D2E/DX2                !
 ! A47   A(24,11,49)           160.5891         estimate D2E/DX2                !
 ! A48   A(11,12,13)           121.2011         estimate D2E/DX2                !
 ! A49   A(11,12,17)           119.4422         estimate D2E/DX2                !
 ! A50   A(13,12,17)           119.3567         estimate D2E/DX2                !
 ! A51   A(12,13,14)           110.0142         estimate D2E/DX2                !
 ! A52   A(12,13,15)           111.4817         estimate D2E/DX2                !
 ! A53   A(12,13,16)           110.675          estimate D2E/DX2                !
 ! A54   A(14,13,15)           110.3587         estimate D2E/DX2                !
 ! A55   A(14,13,16)           107.2576         estimate D2E/DX2                !
 ! A56   A(15,13,16)           106.9266         estimate D2E/DX2                !
 ! A57   A(12,17,18)           121.5867         estimate D2E/DX2                !
 ! A58   A(12,17,44)           120.8953         estimate D2E/DX2                !
 ! A59   A(18,17,44)           117.5178         estimate D2E/DX2                !
 ! A60   A(17,18,19)           120.6151         estimate D2E/DX2                !
 ! A61   A(17,18,23)           119.0104         estimate D2E/DX2                !
 ! A62   A(19,18,23)           120.3115         estimate D2E/DX2                !
 ! A63   A(18,19,20)           111.8286         estimate D2E/DX2                !
 ! A64   A(18,19,21)           108.114          estimate D2E/DX2                !
 ! A65   A(18,19,22)           111.8985         estimate D2E/DX2                !
 ! A66   A(20,19,21)           108.6868         estimate D2E/DX2                !
 ! A67   A(20,19,22)           108.9027         estimate D2E/DX2                !
 ! A68   A(21,19,22)           107.2562         estimate D2E/DX2                !
 ! A69   A(18,23,24)           121.1088         estimate D2E/DX2                !
 ! A70   A(18,23,45)           119.1876         estimate D2E/DX2                !
 ! A71   A(24,23,45)           119.7004         estimate D2E/DX2                !
 ! A72   A(11,24,23)           118.9018         estimate D2E/DX2                !
 ! A73   A(11,24,25)           122.6411         estimate D2E/DX2                !
 ! A74   A(23,24,25)           118.4093         estimate D2E/DX2                !
 ! A75   A(24,25,26)           112.5539         estimate D2E/DX2                !
 ! A76   A(24,25,27)           111.618          estimate D2E/DX2                !
 ! A77   A(24,25,28)           107.4069         estimate D2E/DX2                !
 ! A78   A(26,25,27)           109.2083         estimate D2E/DX2                !
 ! A79   A(26,25,28)           107.8869         estimate D2E/DX2                !
 ! A80   A(27,25,28)           107.9823         estimate D2E/DX2                !
 ! A81   A(3,29,30)            127.0007         estimate D2E/DX2                !
 ! A82   A(3,29,31)            109.1214         estimate D2E/DX2                !
 ! A83   A(30,29,31)           123.8714         estimate D2E/DX2                !
 ! A84   A(29,30,46)           110.1484         estimate D2E/DX2                !
 ! A85   A(29,30,47)           111.177          estimate D2E/DX2                !
 ! A86   A(29,30,48)           110.3833         estimate D2E/DX2                !
 ! A87   A(46,30,47)           107.7953         estimate D2E/DX2                !
 ! A88   A(46,30,48)           107.5068         estimate D2E/DX2                !
 ! A89   A(47,30,48)           109.7254         estimate D2E/DX2                !
 ! A90   A(1,31,29)             94.4676         estimate D2E/DX2                !
 ! D1    D(31,1,2,3)            -0.949          estimate D2E/DX2                !
 ! D2    D(32,1,2,3)          -179.2699         estimate D2E/DX2                !
 ! D3    D(2,1,31,29)           -0.2295         estimate D2E/DX2                !
 ! D4    D(32,1,31,29)         178.0692         estimate D2E/DX2                !
 ! D5    D(1,2,3,4)            178.4539         estimate D2E/DX2                !
 ! D6    D(1,2,3,29)             1.9543         estimate D2E/DX2                !
 ! D7    D(2,3,4,5)            140.5821         estimate D2E/DX2                !
 ! D8    D(2,3,4,11)           -34.1591         estimate D2E/DX2                !
 ! D9    D(2,3,4,49)            22.649          estimate D2E/DX2                !
 ! D10   D(29,3,4,5)           -43.4391         estimate D2E/DX2                !
 ! D11   D(29,3,4,11)          141.8197         estimate D2E/DX2                !
 ! D12   D(29,3,4,49)         -161.3722         estimate D2E/DX2                !
 ! D13   D(2,3,29,30)          177.0504         estimate D2E/DX2                !
 ! D14   D(2,3,29,31)           -2.0389         estimate D2E/DX2                !
 ! D15   D(4,3,29,30)            0.8023         estimate D2E/DX2                !
 ! D16   D(4,3,29,31)         -178.287          estimate D2E/DX2                !
 ! D17   D(3,4,5,6)            -25.3064         estimate D2E/DX2                !
 ! D18   D(3,4,5,33)           162.4885         estimate D2E/DX2                !
 ! D19   D(11,4,5,6)           149.4509         estimate D2E/DX2                !
 ! D20   D(11,4,5,33)          -22.7543         estimate D2E/DX2                !
 ! D21   D(49,4,5,6)            97.7102         estimate D2E/DX2                !
 ! D22   D(49,4,5,33)          -74.4949         estimate D2E/DX2                !
 ! D23   D(3,4,11,12)          103.6163         estimate D2E/DX2                !
 ! D24   D(3,4,11,24)          -74.8714         estimate D2E/DX2                !
 ! D25   D(5,4,11,12)          -71.2985         estimate D2E/DX2                !
 ! D26   D(5,4,11,24)          110.2138         estimate D2E/DX2                !
 ! D27   D(4,5,6,7)           -177.4679         estimate D2E/DX2                !
 ! D28   D(4,5,6,34)             3.815          estimate D2E/DX2                !
 ! D29   D(33,5,6,7)            -5.5436         estimate D2E/DX2                !
 ! D30   D(33,5,6,34)          175.7393         estimate D2E/DX2                !
 ! D31   D(5,6,7,8)             70.6432         estimate D2E/DX2                !
 ! D32   D(5,6,7,35)          -167.5416         estimate D2E/DX2                !
 ! D33   D(5,6,7,36)           -48.7795         estimate D2E/DX2                !
 ! D34   D(34,6,7,8)          -110.5946         estimate D2E/DX2                !
 ! D35   D(34,6,7,35)           11.2206         estimate D2E/DX2                !
 ! D36   D(34,6,7,36)          129.9827         estimate D2E/DX2                !
 ! D37   D(6,7,8,9)            177.9775         estimate D2E/DX2                !
 ! D38   D(6,7,8,37)            57.9342         estimate D2E/DX2                !
 ! D39   D(6,7,8,38)           -58.7683         estimate D2E/DX2                !
 ! D40   D(35,7,8,9)            56.2093         estimate D2E/DX2                !
 ! D41   D(35,7,8,37)          -63.834          estimate D2E/DX2                !
 ! D42   D(35,7,8,38)          179.4635         estimate D2E/DX2                !
 ! D43   D(36,7,8,9)           -60.8917         estimate D2E/DX2                !
 ! D44   D(36,7,8,37)          179.065          estimate D2E/DX2                !
 ! D45   D(36,7,8,38)           62.3625         estimate D2E/DX2                !
 ! D46   D(7,8,9,10)          -178.5788         estimate D2E/DX2                !
 ! D47   D(7,8,9,39)           -59.2676         estimate D2E/DX2                !
 ! D48   D(7,8,9,40)            61.0789         estimate D2E/DX2                !
 ! D49   D(37,8,9,10)          -59.1166         estimate D2E/DX2                !
 ! D50   D(37,8,9,39)           60.1946         estimate D2E/DX2                !
 ! D51   D(37,8,9,40)         -179.4589         estimate D2E/DX2                !
 ! D52   D(38,8,9,10)           57.7055         estimate D2E/DX2                !
 ! D53   D(38,8,9,39)          177.0167         estimate D2E/DX2                !
 ! D54   D(38,8,9,40)          -62.6368         estimate D2E/DX2                !
 ! D55   D(8,9,10,41)          179.0883         estimate D2E/DX2                !
 ! D56   D(8,9,10,42)          -59.1566         estimate D2E/DX2                !
 ! D57   D(8,9,10,43)           59.3427         estimate D2E/DX2                !
 ! D58   D(39,9,10,41)          58.786          estimate D2E/DX2                !
 ! D59   D(39,9,10,42)        -179.4589         estimate D2E/DX2                !
 ! D60   D(39,9,10,43)         -60.9596         estimate D2E/DX2                !
 ! D61   D(40,9,10,41)         -60.3131         estimate D2E/DX2                !
 ! D62   D(40,9,10,42)          61.4421         estimate D2E/DX2                !
 ! D63   D(40,9,10,43)         179.9414         estimate D2E/DX2                !
 ! D64   D(4,11,12,13)          -0.2124         estimate D2E/DX2                !
 ! D65   D(4,11,12,17)         179.7443         estimate D2E/DX2                !
 ! D66   D(24,11,12,13)        178.2696         estimate D2E/DX2                !
 ! D67   D(24,11,12,17)         -1.7736         estimate D2E/DX2                !
 ! D68   D(49,11,12,13)          5.9048         estimate D2E/DX2                !
 ! D69   D(49,11,12,17)       -174.1384         estimate D2E/DX2                !
 ! D70   D(4,11,24,23)         179.7354         estimate D2E/DX2                !
 ! D71   D(4,11,24,25)          -2.8224         estimate D2E/DX2                !
 ! D72   D(12,11,24,23)          1.2376         estimate D2E/DX2                !
 ! D73   D(12,11,24,25)        178.6798         estimate D2E/DX2                !
 ! D74   D(49,11,24,23)        158.2027         estimate D2E/DX2                !
 ! D75   D(49,11,24,25)        -24.3552         estimate D2E/DX2                !
 ! D76   D(11,12,13,14)         72.6521         estimate D2E/DX2                !
 ! D77   D(11,12,13,15)        -50.1164         estimate D2E/DX2                !
 ! D78   D(11,12,13,16)       -168.9932         estimate D2E/DX2                !
 ! D79   D(17,12,13,14)       -107.3047         estimate D2E/DX2                !
 ! D80   D(17,12,13,15)        129.9268         estimate D2E/DX2                !
 ! D81   D(17,12,13,16)         11.0499         estimate D2E/DX2                !
 ! D82   D(11,12,17,18)          0.2776         estimate D2E/DX2                !
 ! D83   D(11,12,17,44)       -179.5464         estimate D2E/DX2                !
 ! D84   D(13,12,17,18)       -179.7648         estimate D2E/DX2                !
 ! D85   D(13,12,17,44)          0.4112         estimate D2E/DX2                !
 ! D86   D(12,17,18,19)        178.8712         estimate D2E/DX2                !
 ! D87   D(12,17,18,23)          1.7491         estimate D2E/DX2                !
 ! D88   D(44,17,18,19)         -1.2991         estimate D2E/DX2                !
 ! D89   D(44,17,18,23)       -178.4211         estimate D2E/DX2                !
 ! D90   D(17,18,19,20)         30.8103         estimate D2E/DX2                !
 ! D91   D(17,18,19,21)        -88.8045         estimate D2E/DX2                !
 ! D92   D(17,18,19,22)        153.2988         estimate D2E/DX2                !
 ! D93   D(23,18,19,20)       -152.1052         estimate D2E/DX2                !
 ! D94   D(23,18,19,21)         88.28           estimate D2E/DX2                !
 ! D95   D(23,18,19,22)        -29.6166         estimate D2E/DX2                !
 ! D96   D(17,18,23,24)         -2.2885         estimate D2E/DX2                !
 ! D97   D(17,18,23,45)        177.0648         estimate D2E/DX2                !
 ! D98   D(19,18,23,24)       -179.4195         estimate D2E/DX2                !
 ! D99   D(19,18,23,45)         -0.0662         estimate D2E/DX2                !
 ! D100  D(18,23,24,11)          0.8144         estimate D2E/DX2                !
 ! D101  D(18,23,24,25)       -176.7369         estimate D2E/DX2                !
 ! D102  D(45,23,24,11)       -178.5357         estimate D2E/DX2                !
 ! D103  D(45,23,24,25)          3.913          estimate D2E/DX2                !
 ! D104  D(11,24,25,26)       -171.5286         estimate D2E/DX2                !
 ! D105  D(11,24,25,27)        -48.313          estimate D2E/DX2                !
 ! D106  D(11,24,25,28)         69.8681         estimate D2E/DX2                !
 ! D107  D(23,24,25,26)          5.9255         estimate D2E/DX2                !
 ! D108  D(23,24,25,27)        129.1411         estimate D2E/DX2                !
 ! D109  D(23,24,25,28)       -112.6777         estimate D2E/DX2                !
 ! D110  D(3,29,30,46)        -147.8926         estimate D2E/DX2                !
 ! D111  D(3,29,30,47)         -28.4692         estimate D2E/DX2                !
 ! D112  D(3,29,30,48)          93.5419         estimate D2E/DX2                !
 ! D113  D(31,29,30,46)         31.0711         estimate D2E/DX2                !
 ! D114  D(31,29,30,47)        150.4945         estimate D2E/DX2                !
 ! D115  D(31,29,30,48)        -87.4944         estimate D2E/DX2                !
 ! D116  D(3,29,31,1)            1.278          estimate D2E/DX2                !
 ! D117  D(30,29,31,1)        -177.8461         estimate D2E/DX2                !
 --------------------------------------------------------------------------------
 Trust Radius=3.00D-01 FncErr=1.00D-07 GrdErr=1.00D-06 EigMax=2.50D+02 EigMin=1.00D-04
 Number of steps in this run=    268 maximum allowed number of steps=    294.
 GradGradGradGradGradGradGradGradGradGradGradGradGradGradGradGradGradGrad

 Leave Link  103 at Fri Jan 24 16:52:24 2025, MaxMem=  3221225472 cpu:               0.5 elap:               0.0
 (Enter /software/gaussian/G16-C.01/avx2/g16/l202.exe)
                          Input orientation:                          
 ---------------------------------------------------------------------
 Center     Atomic      Atomic             Coordinates (Angstroms)
 Number     Number       Type             X           Y           Z
 ---------------------------------------------------------------------
      1          6           0       -2.016610   -3.527812    2.384930
      2          7           0       -1.731899   -2.264330    1.989504
      3          6           0       -1.074546   -2.199654    0.796141
      4          5           0       -0.697892   -0.818156    0.168875
      5          6           0        0.678213   -0.579811   -0.562311
      6          6           0        1.763425   -1.303892   -0.286238
      7          6           0        3.071521   -1.023002   -0.952004
      8          6           0        3.697675    0.295486   -0.462798
      9          6           0        5.058362    0.552446   -1.110405
     10          6           0        5.685349    1.844148   -0.592088
     11          6           0       -1.690792    0.436748    0.382651
     12          6           0       -1.376290    1.449323    1.311639
     13          6           0       -0.090461    1.389658    2.148152
     14          9           0        1.002419    1.659957    1.353174
     15          9           0        0.054035    0.174445    2.758374
     16          9           0       -0.115472    2.363172    3.171212
     17          6           0       -2.238743    2.514184    1.472030
     18          6           0       -3.429459    2.613414    0.735230
     19          6           0       -4.370985    3.776948    0.946816
     20          9           0       -3.697328    4.920382    1.315915
     21          9           0       -5.260086    3.435265    1.962810
     22          9           0       -5.119579    4.043586   -0.178918
     23          6           0       -3.760569    1.596796   -0.147877
     24          6           0       -2.902875    0.500677   -0.348482
     25          6           0       -3.296053   -0.555451   -1.400715
     26          9           0       -4.405098   -0.201326   -2.107047
     27          9           0       -2.264848   -0.808375   -2.274483
     28          9           0       -3.581636   -1.735772   -0.719638
     29          6           0       -0.876035   -3.462234    0.217800
     30          6           0       -0.245737   -3.758448   -1.116910
     31         16           0       -1.475448   -4.625647    1.234904
     32          1           0       -2.535665   -3.776726    3.284400
     33          1           0        0.745030    0.293326   -1.215832
     34          1           0        1.723951   -2.131018    0.414139
     35          1           0        3.771298   -1.859985   -0.760341
     36          1           0        2.930591   -0.933851   -2.064876
     37          1           0        3.826602    0.228130    0.636078
     38          1           0        3.021228    1.146503   -0.652347
     39          1           0        5.751837   -0.286517   -0.868534
     40          1           0        4.934352    0.629315   -2.195038
     41          1           0        6.674737    2.000174   -1.061912
     42          1           0        5.008921    2.717444   -0.808612
     43          1           0        5.822559    1.794559    0.511298
     44          1           0       -2.017344    3.306801    2.171968
     45          1           0       -4.713346    1.647482   -0.688956
     46          1           0       -0.704937   -4.664974   -1.563898
     47          1           0       -0.394187   -2.921472   -1.823052
     48          1           0        0.849200   -3.960554   -0.995028
     49          1           0       -0.651942   -0.034401    0.939340
 ---------------------------------------------------------------------
                    Distance matrix (angstroms):
                    1          2          3          4          5
     1  C    0.000000
     2  N    1.354182   0.000000
     3  C    2.275025   1.363968   0.000000
     4  B    3.740608   2.544656   1.563287   0.000000
     5  C    4.963769   3.893327   2.746169   1.576422   0.000000
     6  C    5.135136   4.280038   3.166704   2.549735   1.333490
     7  C    6.580142   5.767686   4.650848   3.937868   2.464995
     8  C    7.441789   6.484344   5.530348   4.578234   3.145346
     9  C    8.883755   7.978177   6.987241   6.053889   4.557206
    10  C    9.850926   8.863395   7.998480   6.957923   5.563081
    11  C    4.453427   3.143165   2.738859   1.614414   2.745638
    12  C    5.131651   3.791725   3.697543   2.628231   3.442391
    13  C    5.286551   4.008879   3.959737   3.026707   3.437482
    14  F    6.090320   4.825083   4.418219   3.230273   2.964920
    15  F    4.258372   3.119029   3.280304   2.873353   3.462001
    16  F    6.239892   5.042126   5.232605   4.412946   4.819780
    17  C    6.114608   4.833100   4.902289   3.895757   4.713807
    18  C    6.514008   5.314818   5.358633   4.422430   5.362207
    19  C    7.808378   6.674504   6.827077   5.933952   6.837632
    20  F    8.679837   7.479085   7.605528   6.575951   7.274971
    21  F    7.693033   6.703298   7.115629   6.490255   7.600030
    22  F    8.574835   7.481192   7.502738   6.580943   7.425441
    23  C    5.976463   4.857179   4.745411   3.913095   4.961064
    24  C    4.948305   3.805604   3.456116   2.620864   3.746647
    25  C    4.980263   4.106146   3.530535   3.046813   4.061810
    26  F    6.078507   5.308833   4.849164   4.393595   5.326303
    27  F    5.400656   4.537116   3.575082   2.902661   3.412533
    28  F    3.911400   3.322702   2.966188   3.153958   4.416708
    29  C    2.449829   2.303565   1.402852   2.650523   3.366396
    30  C    3.930912   3.753781   2.603177   3.240833   3.356337
    31  S    1.679481   2.492189   2.497734   4.029640   4.923111
    32  H    1.067906   2.147123   3.288382   4.673012   5.945289
    33  H    5.932388   4.790715   3.684269   2.287975   1.092667
    34  H    4.452735   3.800322   2.825283   2.765698   2.110276
    35  H    6.795164   6.165250   5.101001   4.682148   3.353392
    36  H    7.141722   6.320362   5.082204   4.262501   2.730614
    37  H    7.163009   6.240275   5.471837   4.667337   3.464283
    38  H    7.513593   6.419141   5.483634   4.285574   2.911698
    39  H    9.024400   8.251450   7.282221   6.554226   5.091312
    40  H    9.304498   8.385849   7.284029   6.277375   4.716196
    41  H   10.861807   9.908010   9.007902   7.988335   6.547078
    42  H    9.927740   8.836638   7.985090   6.784075   5.448632
    43  H    9.658711   8.702270   7.975269   7.032767   5.766677
    44  H    6.837930   5.581422   5.753504   4.771646   5.463338
    45  H    6.595819   5.600486   5.499712   4.789479   5.834876
    46  H    4.313567   4.409581   3.432812   4.219070   4.427734
    47  H    4.550497   4.093518   2.800729   2.912722   2.867557
    48  H    4.452443   4.294959   3.163836   3.690912   3.412610
    49  H    4.019448   2.691046   2.210750   1.100000   2.078879
                    6          7          8          9         10
     6  C    0.000000
     7  C    1.494409   0.000000
     8  C    2.516050   1.539416   0.000000
     9  C    3.870640   2.540604   1.528689   0.000000
    10  C    5.038371   3.896432   2.523076   1.526518   0.000000
    11  C    3.925412   5.156723   5.456218   6.913298   7.572209
    12  C    4.471154   5.569514   5.497735   6.933645   7.324398
    13  C    4.076563   5.042819   4.729086   6.150569   6.409014
    14  F    3.471484   4.097962   3.524761   4.873036   5.074230
    15  F    3.791722   4.930112   4.864845   6.336689   6.762041
    16  F    5.378808   6.214821   5.658750   6.955540   6.934071
    17  C    5.804012   6.825432   6.626254   7.985307   8.215885
    18  C    6.584431   7.637605   7.589736   8.927321   9.243012
    19  C    8.060170   9.057369   8.900049  10.175567  10.355375
    20  F    8.433760   9.288949   8.901660  10.081072  10.056755
    21  F    8.766273   9.888779   9.797105  11.145657  11.351727
    22  F    8.716811   9.662406   9.585031  10.800288  11.034252
    23  C    6.240805   7.361210   7.577466   8.932563   9.459592
    24  C    5.003469   6.195098   6.604728   7.997781   8.696083
    25  C    5.234553   6.400464   7.107462   8.432554   9.331534
    26  F    6.525464   7.609803   8.282832   9.545603  10.406545
    27  F    4.519474   5.501986   6.328696   7.538987   8.548214
    28  F    5.379966   6.695262   7.561769   8.946408   9.935245
    29  C    3.446627   4.785550   5.958397   7.286896   8.477344
    30  C    3.278962   4.302797   5.693219   6.835007   8.175714
    31  S    4.882440   6.199721   7.339002   8.660473   9.822075
    32  H    6.111181   7.547890   8.335402   9.783930  10.686741
    33  H    2.110066   2.686053   3.047159   4.322394   5.215444
    34  H    1.084537   2.215849   3.248465   4.543513   5.701500
    35  H    2.136718   1.107683   2.177156   2.756611   4.172828
    36  H    2.159343   1.125298   2.160172   2.765413   4.180320
    37  H    2.730285   2.158120   1.108462   2.161624   2.752244
    38  H    2.778586   2.190680   1.103512   2.170861   2.754611
    39  H    4.157109   2.780913   2.173231   1.115019   2.149552
    40  H    4.175594   2.783061   2.154406   1.094402   2.146919
    41  H    5.969884   4.704768   3.482499   2.170469   1.106331
    42  H    5.193964   4.214857   2.775758   2.186490   1.125648
    43  H    5.168465   4.200965   2.776907   2.181000   1.112989
    44  H    6.449456   7.375835   6.976493   8.272004   8.313293
    45  H    7.128910   8.234369   8.521990   9.841900  10.401006
    46  H    4.361432   5.282045   6.723211   7.787345   9.173267
    47  H    3.103813   4.046485   5.379818   6.504326   7.822222
    48  H    2.897592   3.683717   5.148879   6.172319   7.566059
    49  H    2.991261   4.291700   4.581920   6.095360   6.784945
                   11         12         13         14         15
    11  C    0.000000
    12  C    1.409695   0.000000
    13  C    2.566338   1.535145   0.000000
    14  F    3.113124   2.388377   1.378201   0.000000
    15  F    2.959270   2.400872   1.367477   2.254055   0.000000
    16  F    3.737488   2.425447   1.412447   2.247099   2.233762
    17  C    2.408887   1.379666   2.517302   3.353947   3.519359
    18  C    2.808051   2.429579   3.826595   4.575202   4.709183
    19  C    4.319566   3.810397   5.046310   5.789667   5.986699
    20  F    5.000014   4.175581   5.115478   5.720086   6.219109
    21  F    4.922181   4.410426   5.562722   6.537762   6.285360
    22  F    5.008116   4.792094   6.144153   6.745951   7.096775
    23  C    2.431286   2.799414   4.334091   4.994316   5.002057
    24  C    1.416964   2.446710   3.864342   4.414848   4.301429
    25  C    2.596482   3.880911   5.162725   5.564961   5.390163
    26  F    3.738073   4.856514   6.265304   6.684215   6.610400
    27  F    2.990022   4.329781   5.396203   5.470611   5.627859
    28  F    3.083857   4.374296   5.493708   6.069685   5.381783
    29  C    3.986610   5.056692   5.280553   5.572656   4.532657
    30  C    4.683645   5.856354   6.098175   6.084268   5.529497
    31  S    5.138146   6.076264   6.239880   6.757412   5.263189
    32  H    5.185298   5.705044   5.827659   6.767953   4.753420
    33  H    2.917010   3.496346   3.635434   2.921253   4.035582
    34  H    4.272573   4.820357   4.323662   3.971635   3.687712
    35  H    6.034554   6.460827   5.825178   4.952133   5.508022
    36  H    5.406118   5.969053   5.681114   4.704121   5.724215
    37  H    5.527149   5.386815   4.356478   3.246593   4.328889
    38  H    4.876280   4.825671   4.193391   2.891598   4.624083
    39  H    7.581643   7.653528   6.785456   5.593007   6.769926
    40  H    7.111547   7.265907   6.685071   5.395566   6.968550
    41  H    8.632100   8.411672   7.512999   6.174430   7.858853
    42  H    7.176827   6.846497   6.042282   4.673720   6.613708
    43  H    7.636140   7.251424   6.148743   4.894959   6.399218
    44  H    3.397867   2.145073   2.718250   3.535744   3.800807
    45  H    3.427835   3.895842   5.430168   6.069631   6.064803
    46  H    5.548741   6.789996   7.128496   7.171409   6.532843
    47  H    4.221842   5.467601   5.869289   5.747034   5.547528
    48  H    5.261732   6.288107   6.275931   6.093247   5.640791
    49  H    1.269289   1.692550   1.950496   2.403958   1.962372
                   16         17         18         19         20
    16  F    0.000000
    17  C    2.723656   0.000000
    18  C    4.120575   1.403754   0.000000
    19  C    5.005606   2.533156   1.511639   0.000000
    20  F    4.776101   2.818090   2.393961   1.377494   0.000000
    21  F    5.392279   3.196525   2.352358   1.392656   2.250834
    22  F    6.252059   3.655669   2.395322   1.377957   2.241895
    23  C    4.989029   2.404507   1.386731   2.514760   3.632204
    24  C    4.860735   2.794556   2.432155   3.816686   4.789067
    25  C    6.287843   4.335115   3.823841   5.043417   6.125834
    26  F    7.268944   4.987672   4.117422   5.015366   6.200766
    27  F    6.658387   5.007637   4.703544   5.986465   6.910977
    28  F    6.629807   4.966779   4.588596   5.812936   6.961411
    29  C    6.575443   6.256806   6.610688   8.071672   8.912564
    30  C    7.475238   7.072523   7.359832   8.835090   9.651642
    31  S    7.378509   7.184429   7.514774   8.892172   9.801529
    32  H    6.600643   6.553502   6.937653   8.117308   8.992445
    33  H    4.926549   4.589086   5.159051   6.556392   6.895936
    34  H    5.584145   6.196771   7.012158   8.505060   8.940118
    35  H    6.956949   7.761277   8.608073  10.049187  10.298766
    36  H    6.896773   7.149871   7.802173   9.196462   9.467370
    37  H    5.150268   6.535538   7.638706   8.938182   8.893195
    38  H    5.093012   5.835308   6.759331   8.007582   7.953314
    39  H    7.600376   8.784733   9.761038  11.057973  11.007740
    40  H    7.569916   8.273657   9.081655  10.313493  10.258945
    41  H    8.009872   9.280905  10.281078  11.366613  11.034556
    42  H    6.497994   7.600742   8.579075   9.601392   9.228507
    43  H    6.531361   8.150181   9.290882  10.393646  10.052185
    44  H    2.346496   1.080358   2.130510   2.694747   2.481696
    45  H    6.045954   3.397748   2.147020   2.706951   3.970350
    46  H    8.494914   7.944162   8.104562   9.539897  10.446376
    47  H    7.276525   6.618633   6.811214   8.267764   9.069649
    48  H    7.633980   7.585776   8.032295   9.533626  10.241211
    49  H    3.319248   3.049095   3.842810   5.325197   5.828041
                   21         22         23         24         25
    21  F    0.000000
    22  F    2.230872   0.000000
    23  C    3.175455   2.799045   0.000000
    24  C    4.417049   4.182671   1.406186   0.000000
    25  C    5.576427   5.095996   2.533288   1.541814   0.000000
    26  F    5.524449   4.716719   2.736240   2.417030   1.361723
    27  F    6.703326   6.006863   3.541819   2.414575   1.375072
    28  F    6.062371   6.004884   3.385992   2.366469   1.392330
    29  C    8.357060   8.631476   5.835070   4.487028   4.114057
    30  C    9.293970   9.246940   6.478557   5.078485   4.432173
    31  S    8.934855   9.509689   6.771459   5.551923   5.179536
    32  H    7.821885   8.934678   6.492739   5.623953   5.736298
    33  H    7.485784   7.037989   4.810404   3.755330   4.133395
    34  H    9.064141   9.236415   6.655255   5.377260   5.565658
    35  H   10.817630  10.688213   8.309842   7.091328   7.215216
    36  H   10.119220   9.650749   7.406125   6.247656   6.273387
    37  H    9.726964   9.759922   7.749387   6.806577   7.449479
    38  H    8.980959   8.653899   6.815425   5.966944   6.585191
    39  H   11.963721  11.722332   9.723790   8.705985   9.067517
    40  H   11.361673  10.807568   8.984906   8.052854   8.353095
    41  H   12.395500  12.002546  10.483024   9.720501  10.298673
    42  H   10.660608  10.234339   8.865460   8.229356   8.946230
    43  H   11.297071  11.192180   9.607807   8.862649   9.608716
    44  H    3.252019   3.961487   3.368179   3.874424   5.414439
    45  H    3.244527   2.483240   1.096868   2.169998   2.714449
    46  H    9.939865   9.861351   7.109977   5.743876   4.860935
    47  H    8.855384   8.575811   5.878222   4.492102   3.767924
    48  H   10.038442  10.017915   7.269923   5.865038   5.379818
    49  H    5.858419   6.151444   3.675107   2.647923   3.569128
                   26         27         28         29         30
    26  F    0.000000
    27  F    2.230967   0.000000
    28  F    2.226549   2.238647   0.000000
    29  C    5.337857   3.896568   3.343611   0.000000
    30  C    5.561813   3.757621   3.921385   1.505480   0.000000
    31  S    6.271053   5.245047   4.075247   1.657506   2.791998
    32  H    6.733942   6.307585   4.614311   3.501044   4.961414
    33  H    5.250025   3.375478   4.804528   4.334441   4.172322
    34  H    6.902560   4.988847   5.439754   2.927561   2.978643
    35  H    8.450930   6.311384   7.354095   5.012152   4.457340
    36  H    7.372293   5.201179   6.697898   5.108202   4.355002
    37  H    8.687350   6.830188   7.783114   5.992372   5.962358
    38  H    7.686554   5.864766   7.204849   6.098054   5.911635
    39  H   10.232522   8.155751   9.446493   7.429266   6.934472
    40  H    9.376728   7.341781   8.960608   7.504875   6.873729
    41  H   11.344675   9.448517  10.920972   9.406898   9.003206
    42  H    9.941273   8.215102   9.676607   8.595036   8.345277
    43  H   10.744498   8.941028  10.120144   8.520045   8.385175
    44  H    6.026466   6.063568   6.019629   7.137310   7.992062
    45  H    2.350338   3.813170   3.567649   6.454174   7.026147
    46  H    5.823260   4.220380   4.191467   2.156456   1.110158
    47  H    4.854612   2.858031   3.575366   2.165567   1.105080
    48  H    6.555611   4.611999   4.965662   2.166959   1.120085
    49  H    4.836788   3.678201   3.772264   3.510110   4.273370
                   31         32         33         34         35
    31  S    0.000000
    32  H    2.458690   0.000000
    33  H    5.927303   6.897852   0.000000
    34  H    4.139201   5.393615   3.080995   0.000000
    35  H    6.257654   7.733796   3.741993   2.375813   0.000000
    36  H    6.628053   8.159451   2.646415   3.005778   1.807298
    37  H    7.213145   7.970628   3.595817   3.167960   2.512621
    38  H    7.556423   8.403286   2.495296   3.682725   3.100522
    39  H    8.688277   9.905105   5.052222   4.612082   2.531807
    40  H    8.970210  10.258586   4.315339   4.973320   3.099623
    41  H   10.751855  11.708736   6.172394   6.614813   4.839600
    42  H   10.007197  10.763260   4.921681   5.982786   4.742035
    43  H    9.746976  10.420615   5.569378   5.676106   4.379546
    44  H    8.005965   7.189056   5.309325   6.830602   8.294726
    45  H    7.316923   7.067665   5.648470   7.545374   9.181318
    46  H    2.903193   5.257997   5.177672   4.029027   5.343252
    47  H    3.663938   5.603879   3.464311   3.180621   4.428021
    48  H    3.289215   5.459359   4.260880   2.469441   3.606400
    49  H    4.673869   4.801324   2.589151   3.211931   5.078062
                   36         37         38         39         40
    36  H    0.000000
    37  H    3.073791   0.000000
    38  H    2.516213   1.775409   0.000000
    39  H    3.132046   2.497049   3.091361   0.000000
    40  H    2.544699   3.066477   2.511459   1.807385   0.000000
    41  H    4.861386   3.759680   3.774206   2.473478   2.488407
    42  H    4.385158   3.111542   2.538346   3.095043   2.507592
    43  H    4.737549   2.540298   3.101854   2.497962   3.077491
    44  H    7.772775   6.781510   6.166915   9.083874   8.635146
    45  H    8.184510   8.757910   7.750868  10.643903   9.817486
    46  H    5.233480   7.022620   6.963368   7.832263   7.760761
    47  H    3.881141   5.812260   5.439120   6.754828   6.414031
    48  H    3.825923   5.391706   5.560321   6.127838   6.260622
    49  H    4.761183   4.496470   4.173749   6.658856   6.439839
                   41         42         43         44         45
    41  H    0.000000
    42  H    1.831278   0.000000
    43  H    1.800965   1.804407   0.000000
    44  H    9.365764   7.655038   8.155291   0.000000
    45  H   11.399646   9.781698  10.605071   4.266926   0.000000
    46  H    9.956695   9.365827   9.414892   8.901028   7.528610
    47  H    8.647058   7.875280   8.144818   7.575369   6.388791
    48  H    8.334964   7.869795   7.754007   8.429792   7.904788
    49  H    7.862871   6.532485   6.741474   3.814096   4.687759
                   46         47         48         49
    46  H    0.000000
    47  H    1.789840   0.000000
    48  H    1.798656   1.819706   0.000000
    49  H    5.264143   4.004051   4.627081   0.000000
 Stoichiometry    C19H18BF9NS(1-)
 Framework group  C1[X(C19H18BF9NS)]
 Deg. of freedom   141
 Full point group                 C1      NOp   1
 Largest Abelian subgroup         C1      NOp   1
 Largest concise Abelian subgroup C1      NOp   1
                         Standard orientation:                         
 ---------------------------------------------------------------------
 Center     Atomic      Atomic             Coordinates (Angstroms)
 Number     Number       Type             X           Y           Z
 ---------------------------------------------------------------------
      1          6           0       -0.797734    3.430768    2.382785
      2          7           0       -0.454687    2.236049    1.845406
      3          6           0       -1.115155    1.947200    0.687495
      4          5           0       -0.817066    0.624096   -0.089939
      5          6           0       -1.959878   -0.217337   -0.776291
      6          6           0       -3.225019   -0.170476   -0.357461
      7          6           0       -4.281135   -1.019367   -0.987747
      8          6           0       -4.110002   -2.508896   -0.638720
      9          6           0       -5.221353   -3.365487   -1.245384
     10          6           0       -5.061190   -4.834915   -0.864087
     11          6           0        0.685650    0.034041   -0.085985
     12          6           0        1.019201   -1.071932    0.721979
     13          6           0       -0.027371   -1.743725    1.622008
     14          9           0       -0.917428   -2.463436    0.854380
     15          9           0       -0.692628   -0.826304    2.387360
     16          9           0        0.588774   -2.651775    2.511286
     17          6           0        2.309237   -1.560752    0.703531
     18          6           0        3.304362   -0.979542   -0.097996
     19          6           0        4.717086   -1.517140   -0.082115
     20          9           0        4.747245   -2.870580    0.172402
     21          9           0        5.419830   -0.858223    0.923603
     22          9           0        5.373915   -1.271216   -1.268227
     23          6           0        2.987975    0.134472   -0.860816
     24          6           0        1.682154    0.655891   -0.878494
     25          6           0        1.381412    1.849500   -1.806956
     26          9           0        2.436657    2.168124   -2.606472
     27          9           0        0.275061    1.616375   -2.589556
     28          9           0        1.111056    2.949349   -0.997127
     29          6           0       -1.977269    2.977689    0.283957
     30          6           0       -2.809524    3.023911   -0.969712
     31         16           0       -1.933403    4.194101    1.409011
     32          1           0       -0.379458    3.832097    3.279670
     33          1           0       -1.651606   -0.945050   -1.530826
     34          1           0       -3.528867    0.499967    0.439034
     35          1           0       -5.280044   -0.672960   -0.657374
     36          1           0       -4.234148   -0.930770   -2.108567
     37          1           0       -4.137287   -2.608912    0.464883
     38          1           0       -3.123936   -2.879357   -0.967616
     39          1           0       -6.210474   -3.018402   -0.865330
     40          1           0       -5.192034   -3.277320   -2.335834
     41          1           0       -5.884535   -5.431429   -1.300255
     42          1           0       -4.066908   -5.222223   -1.222525
     43          1           0       -5.086258   -4.954751    0.242148
     44          1           0        2.588745   -2.411609    1.307759
     45          1           0        3.775096    0.620089   -1.450507
     46          1           0       -2.914311    4.071893   -1.320717
     47          1           0       -2.339731    2.440893   -1.782478
     48          1           0       -3.839157    2.631200   -0.769149
     49          1           0       -0.383539   -0.136032    0.576589
 ---------------------------------------------------------------------
 Rotational constants (GHZ):           0.1407435           0.0989693           0.0743975
 Leave Link  202 at Fri Jan 24 16:52:24 2025, MaxMem=  3221225472 cpu:               1.3 elap:               0.1
 (Enter /software/gaussian/G16-C.01/avx2/g16/l301.exe)
 Standard basis: def2SVP (5D, 7F)
 Ernie: Thresh=  0.10000D-02 Tol=  0.10000D-05 Strict=F.
 There are   559 symmetry adapted cartesian basis functions of A   symmetry.
 There are   528 symmetry adapted basis functions of A   symmetry.
   528 basis functions,   913 primitive gaussians,   559 cartesian basis functions
   121 alpha electrons      121 beta electrons
       nuclear repulsion energy      3539.7267268854 Hartrees.
 IExCor= 1009 DFT=T Ex+Corr=PBE1PBE ExCW=0 ScaHFX=  0.250000
 ScaDFX=  0.750000  0.750000  1.000000  1.000000 ScalE2=  1.000000  1.000000
 IRadAn=      5 IRanWt=     -1 IRanGd=            0 ICorTp=0 IEmpDi=141
 NAtoms=   49 NActive=   49 NUniq=   49 SFac= 1.00D+00 NAtFMM=   60 NAOKFM=F Big=F
 Integral buffers will be    131072 words long.
 Raffenetti 2 integral format.
 Two-electron integral symmetry is turned on.
 R6Disp:  Grimme-D3(BJ) Dispersion energy=       -0.0579891442 Hartrees.
 Nuclear repulsion after empirical dispersion term =     3539.6687377412 Hartrees.
 Leave Link  301 at Fri Jan 24 16:52:24 2025, MaxMem=  3221225472 cpu:               1.3 elap:               0.1
 (Enter /software/gaussian/G16-C.01/avx2/g16/l302.exe)
 NPDir=0 NMtPBC=     1 NCelOv=     1 NCel=       1 NClECP=     1 NCelD=      1
         NCelK=      1 NCelE2=     1 NClLst=     1 CellRange=     0.0.
 One-electron integrals computed using PRISM.
 One-electron integral symmetry used in STVInt
   1 Symmetry operations used in ECPInt.
 ECPInt:  NShTT=   29403 NPrTT=  110213 LenC2=   24171 LenP2D=   58918.
 LDataN:  DoStor=T MaxTD1= 4 Len=   56
 NBasis=   528 RedAO= T EigKep=  2.27D-04  NBF=   528
 NBsUse=   528 1.00D-06 EigRej= -1.00D+00 NBFU=   528
 Precomputing XC quadrature grid using
 IXCGrd= 4 IRadAn=           5 IRanWt=          -1 IRanGd=           0 AccXCQ= 0.00D+00.
 Generated NRdTot=       0 NPtTot=           0 NUsed=           0 NTot=          32
 NSgBfM=   549   549   549   549   549 MxSgAt=    49 MxSgA2=    49.
 Leave Link  302 at Fri Jan 24 16:52:25 2025, MaxMem=  3221225472 cpu:              17.4 elap:               0.8
 (Enter /software/gaussian/G16-C.01/avx2/g16/l303.exe)
 DipDrv:  MaxL=1.
 Leave Link  303 at Fri Jan 24 16:52:25 2025, MaxMem=  3221225472 cpu:               2.3 elap:               0.1
 (Enter /software/gaussian/G16-C.01/avx2/g16/l401.exe)
 ExpMin= 8.36D-02 ExpMax= 9.18D+03 ExpMxC= 1.38D+03 IAcc=3 IRadAn=         5 AccDes= 0.00D+00
 Harris functional with IExCor= 1009 and IRadAn=       5 diagonalized for initial guess.
 HarFok:  IExCor= 1009 AccDes= 0.00D+00 IRadAn=         5 IDoV= 1 UseB2=F ITyADJ=14
 ICtDFT=  3500011 ScaDFX=  1.000000  1.000000  1.000000  1.000000
 FoFCou: FMM=F IPFlag=           0 FMFlag=      100000 FMFlg1=           0
         NFxFlg=           0 DoJE=T BraDBF=F KetDBF=T FulRan=T
         wScrn=  0.000000 ICntrl=       500 IOpCl=  0 I1Cent=   200000004 NGrid=           0
         NMat0=    1 NMatS0=      1 NMatT0=    0 NMatD0=    1 NMtDS0=    0 NMtDT0=    0
 Petite list used in FoFCou.
 Harris En= -2108.28168859127    
 JPrj=0 DoOrth=F DoCkMO=F.
 Leave Link  401 at Fri Jan 24 16:52:27 2025, MaxMem=  3221225472 cpu:              38.7 elap:               1.6
 (Enter /software/gaussian/G16-C.01/avx2/g16/l502.exe)
 Integral symmetry usage will be decided dynamically.
 Closed shell SCF:
 Using DIIS extrapolation, IDIIS=  1040.
 NGot=  3221225472 LenX=  3220580158 LenY=  3220267118
 Requested convergence on RMS density matrix=1.00D-08 within 128 cycles.
 Requested convergence on MAX density matrix=1.00D-06.
 Requested convergence on             energy=1.00D-06.
 No special actions if energy rises.
 Fock matrices will be formed incrementally for  20 cycles.
 Integral accuracy reduced to 1.0D-05 until final iterations.

 Cycle   1  Pass 0  IDiag  1:
 FoFJK:  IHMeth= 1 ICntrl=       0 DoSepK=F KAlg= 0 I1Cent=           0 FoldK=F
 IRaf= 730000000 NMat=       1 IRICut=       1 DoRegI=T DoRafI=F ISym2E= 0 IDoP0=0 IntGTp=1.
 FoFCou: FMM=F IPFlag=           0 FMFlag=      100000 FMFlg1=           0
         NFxFlg=           0 DoJE=F BraDBF=F KetDBF=F FulRan=T
         wScrn=  0.000000 ICntrl=         0 IOpCl=  0 I1Cent=           0 NGrid=           0
         NMat0=    1 NMatS0=      1 NMatT0=    0 NMatD0=    1 NMtDS0=    0 NMtDT0=    0
 Symmetry not used in FoFCou.
 E= -2107.06078910422    
 DIIS: error= 2.45D-02 at cycle   1 NSaved=   1.
 NSaved= 1 IEnMin= 1 EnMin= -2107.06078910422     IErMin= 1 ErrMin= 2.45D-02
 ErrMax= 2.45D-02  0.00D+00 EMaxC= 1.00D-01 BMatC= 7.81D-01 BMatP= 7.81D-01
 IDIUse=3 WtCom= 7.55D-01 WtEn= 2.45D-01
 Coeff-Com:  0.100D+01
 Coeff-En:   0.100D+01
 Coeff:      0.100D+01
 Gap=     0.035 Goal=   None    Shift=    0.000
 GapD=    0.035 DampG=0.250 DampE=0.500 DampFc=0.2500 IDamp=-1.
 Damping current iteration by 2.50D-01
 RMSDP=7.79D-03 MaxDP=4.33D-01              OVMax= 8.38D-01

 Cycle   2  Pass 0  IDiag  1:
 RMSU=  1.94D-03    CP:  9.91D-01
 E= -2107.28017938941     Delta-E=       -0.219390285183 Rises=F Damp=T
 DIIS: error= 1.37D-02 at cycle   2 NSaved=   2.
 NSaved= 2 IEnMin= 2 EnMin= -2107.28017938941     IErMin= 2 ErrMin= 1.37D-02
 ErrMax= 1.37D-02  0.00D+00 EMaxC= 1.00D-01 BMatC= 1.52D-01 BMatP= 7.81D-01
 IDIUse=3 WtCom= 8.63D-01 WtEn= 1.37D-01
 Coeff-Com: -0.404D+00 0.140D+01
 Coeff-En:   0.122D+00 0.878D+00
 Coeff:     -0.332D+00 0.133D+01
 Gap=     0.008 Goal=   None    Shift=    0.000
 RMSDP=2.91D-03 MaxDP=2.47D-01 DE=-2.19D-01 OVMax= 8.97D-01

 Cycle   3  Pass 0  IDiag  1:
 RMSU=  2.70D-03    CP:  9.79D-01  4.53D-01
 E= -2107.52405336439     Delta-E=       -0.243873974980 Rises=F Damp=F
 DIIS: error= 2.01D-02 at cycle   3 NSaved=   3.
 NSaved= 3 IEnMin= 3 EnMin= -2107.52405336439     IErMin= 2 ErrMin= 1.37D-02
 ErrMax= 2.01D-02  0.00D+00 EMaxC= 1.00D-01 BMatC= 3.23D-01 BMatP= 1.52D-01
 IDIUse=2 WtCom= 0.00D+00 WtEn= 1.00D+00
 Coeff-En:   0.000D+00 0.231D+00 0.769D+00
 Coeff:      0.000D+00 0.231D+00 0.769D+00
 Gap=     0.035 Goal=   None    Shift=    0.000
 RMSDP=5.31D-03 MaxDP=3.67D-01 DE=-2.44D-01 OVMax= 8.50D-01

 Cycle   4  Pass 0  IDiag  1:
 RMSU=  2.67D-03    CP:  9.69D-01  2.17D+00 -1.61D-01
 E= -2105.92443753674     Delta-E=        1.599615827648 Rises=F Damp=F
 DIIS: error= 3.78D-02 at cycle   4 NSaved=   4.
 NSaved= 4 IEnMin= 3 EnMin= -2107.52405336439     IErMin= 2 ErrMin= 1.37D-02
 ErrMax= 3.78D-02  0.00D+00 EMaxC= 1.00D-01 BMatC= 1.48D+00 BMatP= 1.52D-01
 IDIUse=2 WtCom= 0.00D+00 WtEn= 1.00D+00
 Coeff-En:   0.000D+00 0.000D+00 0.772D+00 0.228D+00
 Coeff:      0.000D+00 0.000D+00 0.772D+00 0.228D+00
 Gap=     0.026 Goal=   None    Shift=    0.000
 RMSDP=4.05D-03 MaxDP=2.26D-01 DE= 1.60D+00 OVMax= 9.06D-01

 Cycle   5  Pass 0  IDiag  1:
 RMSU=  1.69D-03    CP:  9.81D-01  8.46D-01  5.07D-01  2.88D-01
 E= -2107.79917041552     Delta-E=       -1.874732878779 Rises=F Damp=F
 DIIS: error= 1.18D-02 at cycle   5 NSaved=   5.
 NSaved= 5 IEnMin= 5 EnMin= -2107.79917041552     IErMin= 5 ErrMin= 1.18D-02
 ErrMax= 1.18D-02  0.00D+00 EMaxC= 1.00D-01 BMatC= 9.12D-02 BMatP= 1.52D-01
 IDIUse=3 WtCom= 8.82D-01 WtEn= 1.18D-01
 Coeff-Com: -0.165D+00 0.377D+00 0.342D+00 0.234D-02 0.444D+00
 Coeff-En:   0.000D+00 0.000D+00 0.235D+00 0.000D+00 0.765D+00
 Coeff:     -0.145D+00 0.332D+00 0.329D+00 0.206D-02 0.482D+00
 Gap=     0.081 Goal=   None    Shift=    0.000
 RMSDP=1.08D-03 MaxDP=1.11D-01 DE=-1.87D+00 OVMax= 1.08D-01

 Cycle   6  Pass 0  IDiag  1:
 RMSU=  6.40D-04    CP:  9.82D-01  6.61D-01  7.30D-01  1.76D-01  7.50D-01
 E= -2107.87814304174     Delta-E=       -0.078972626225 Rises=F Damp=F
 DIIS: error= 7.36D-03 at cycle   6 NSaved=   6.
 NSaved= 6 IEnMin= 6 EnMin= -2107.87814304174     IErMin= 6 ErrMin= 7.36D-03
 ErrMax= 7.36D-03  0.00D+00 EMaxC= 1.00D-01 BMatC= 1.21D-02 BMatP= 9.12D-02
 IDIUse=3 WtCom= 9.26D-01 WtEn= 7.36D-02
 Coeff-Com: -0.105D+00 0.169D+00 0.117D+00-0.248D-01 0.334D+00 0.511D+00
 Coeff-En:   0.000D+00 0.000D+00 0.000D+00 0.000D+00 0.110D+00 0.890D+00
 Coeff:     -0.974D-01 0.156D+00 0.108D+00-0.229D-01 0.317D+00 0.539D+00
 Gap=     0.088 Goal=   None    Shift=    0.000
 RMSDP=3.56D-04 MaxDP=3.00D-02 DE=-7.90D-02 OVMax= 3.35D-02

 Cycle   7  Pass 0  IDiag  1:
 RMSU=  2.02D-04    CP:  9.81D-01  7.23D-01  7.06D-01  1.93D-01  8.09D-01
                    CP:  6.34D-01
 E= -2107.89004172597     Delta-E=       -0.011898684224 Rises=F Damp=F
 DIIS: error= 1.50D-03 at cycle   7 NSaved=   7.
 NSaved= 7 IEnMin= 7 EnMin= -2107.89004172597     IErMin= 7 ErrMin= 1.50D-03
 ErrMax= 1.50D-03  0.00D+00 EMaxC= 1.00D-01 BMatC= 7.80D-04 BMatP= 1.21D-02
 IDIUse=3 WtCom= 9.85D-01 WtEn= 1.50D-02
 Coeff-Com: -0.423D-01 0.593D-01 0.186D-01-0.104D-01 0.105D+00 0.283D+00
 Coeff-Com:  0.586D+00
 Coeff-En:   0.000D+00 0.000D+00 0.000D+00 0.000D+00 0.000D+00 0.000D+00
 Coeff-En:   0.100D+01
 Coeff:     -0.417D-01 0.585D-01 0.184D-01-0.103D-01 0.104D+00 0.279D+00
 Coeff:      0.593D+00
 Gap=     0.089 Goal=   None    Shift=    0.000
 RMSDP=1.09D-04 MaxDP=7.53D-03 DE=-1.19D-02 OVMax= 1.05D-02

 Cycle   8  Pass 0  IDiag  1:
 RMSU=  7.73D-05    CP:  9.81D-01  7.15D-01  7.08D-01  1.93D-01  8.12D-01
                    CP:  7.10D-01  7.19D-01
 E= -2107.89069519716     Delta-E=       -0.000653471190 Rises=F Damp=F
 DIIS: error= 6.35D-04 at cycle   8 NSaved=   8.
 NSaved= 8 IEnMin= 8 EnMin= -2107.89069519716     IErMin= 8 ErrMin= 6.35D-04
 ErrMax= 6.35D-04  0.00D+00 EMaxC= 1.00D-01 BMatC= 1.58D-04 BMatP= 7.80D-04
 IDIUse=3 WtCom= 9.94D-01 WtEn= 6.35D-03
 Coeff-Com: -0.123D-01 0.149D-01-0.572D-02-0.196D-02 0.109D-01 0.836D-01
 Coeff-Com:  0.366D+00 0.545D+00
 Coeff-En:   0.000D+00 0.000D+00 0.000D+00 0.000D+00 0.000D+00 0.000D+00
 Coeff-En:   0.147D+00 0.853D+00
 Coeff:     -0.122D-01 0.148D-01-0.569D-02-0.194D-02 0.108D-01 0.831D-01
 Coeff:      0.364D+00 0.547D+00
 Gap=     0.089 Goal=   None    Shift=    0.000
 RMSDP=4.32D-05 MaxDP=3.00D-03 DE=-6.53D-04 OVMax= 5.02D-03

 Cycle   9  Pass 0  IDiag  1:
 RMSU=  2.60D-05    CP:  9.81D-01  7.19D-01  7.09D-01  1.95D-01  8.17D-01
                    CP:  7.14D-01  8.31D-01  7.08D-01
 E= -2107.89085530577     Delta-E=       -0.000160108609 Rises=F Damp=F
 DIIS: error= 1.66D-04 at cycle   9 NSaved=   9.
 NSaved= 9 IEnMin= 9 EnMin= -2107.89085530577     IErMin= 9 ErrMin= 1.66D-04
 ErrMax= 1.66D-04  0.00D+00 EMaxC= 1.00D-01 BMatC= 1.23D-05 BMatP= 1.58D-04
 IDIUse=3 WtCom= 9.98D-01 WtEn= 1.66D-03
 Coeff-Com: -0.370D-02 0.393D-02-0.474D-02-0.258D-03-0.268D-02 0.203D-01
 Coeff-Com:  0.146D+00 0.300D+00 0.541D+00
 Coeff-En:   0.000D+00 0.000D+00 0.000D+00 0.000D+00 0.000D+00 0.000D+00
 Coeff-En:   0.000D+00 0.000D+00 0.100D+01
 Coeff:     -0.369D-02 0.392D-02-0.473D-02-0.258D-03-0.267D-02 0.202D-01
 Coeff:      0.145D+00 0.300D+00 0.542D+00
 Gap=     0.089 Goal=   None    Shift=    0.000
 RMSDP=1.27D-05 MaxDP=7.30D-04 DE=-1.60D-04 OVMax= 1.94D-03

 Cycle  10  Pass 0  IDiag  1:
 RMSU=  1.01D-05    CP:  9.81D-01  7.19D-01  7.10D-01  1.95D-01  8.18D-01
                    CP:  7.21D-01  8.36D-01  7.66D-01  8.67D-01
 E= -2107.89086759529     Delta-E=       -0.000012289523 Rises=F Damp=F
 DIIS: error= 5.47D-05 at cycle  10 NSaved=  10.
 NSaved=10 IEnMin=10 EnMin= -2107.89086759529     IErMin=10 ErrMin= 5.47D-05
 ErrMax= 5.47D-05  0.00D+00 EMaxC= 1.00D-01 BMatC= 2.07D-06 BMatP= 1.23D-05
 IDIUse=1 WtCom= 1.00D+00 WtEn= 0.00D+00
 Coeff-Com:  0.414D-04-0.550D-03-0.146D-02 0.580D-04-0.255D-02-0.432D-02
 Coeff-Com:  0.127D-01 0.679D-01 0.318D+00 0.610D+00
 Coeff:      0.414D-04-0.550D-03-0.146D-02 0.580D-04-0.255D-02-0.432D-02
 Coeff:      0.127D-01 0.679D-01 0.318D+00 0.610D+00
 Gap=     0.090 Goal=   None    Shift=    0.000
 RMSDP=5.91D-06 MaxDP=2.58D-04 DE=-1.23D-05 OVMax= 8.74D-04

 Initial convergence to 1.0D-05 achieved.  Increase integral accuracy.
 Cycle  11  Pass 1  IDiag  1:
 E= -2107.89090591688     Delta-E=       -0.000038321589 Rises=F Damp=F
 DIIS: error= 1.81D-04 at cycle   1 NSaved=   1.
 NSaved= 1 IEnMin= 1 EnMin= -2107.89090591688     IErMin= 1 ErrMin= 1.81D-04
 ErrMax= 1.81D-04  0.00D+00 EMaxC= 1.00D-01 BMatC= 5.76D-06 BMatP= 5.76D-06
 IDIUse=3 WtCom= 9.98D-01 WtEn= 1.81D-03
 Coeff-Com:  0.100D+01
 Coeff-En:   0.100D+01
 Coeff:      0.100D+01
 Gap=     0.090 Goal=   None    Shift=    0.000
 RMSDP=5.91D-06 MaxDP=2.58D-04 DE=-3.83D-05 OVMax= 6.96D-04

 Cycle  12  Pass 1  IDiag  1:
 RMSU=  1.02D-04    CP:  1.00D+00
 E= -2107.89091083382     Delta-E=       -0.000004916946 Rises=F Damp=F
 DIIS: error= 2.94D-05 at cycle   2 NSaved=   2.
 NSaved= 2 IEnMin= 2 EnMin= -2107.89091083382     IErMin= 2 ErrMin= 2.94D-05
 ErrMax= 2.94D-05  0.00D+00 EMaxC= 1.00D-01 BMatC= 9.36D-07 BMatP= 5.76D-06
 IDIUse=1 WtCom= 1.00D+00 WtEn= 0.00D+00
 Coeff-Com:  0.180D+00 0.820D+00
 Coeff:      0.180D+00 0.820D+00
 Gap=     0.090 Goal=   None    Shift=    0.000
 RMSDP=7.38D-06 MaxDP=5.70D-04 DE=-4.92D-06 OVMax= 9.31D-04

 Cycle  13  Pass 1  IDiag  1:
 RMSU=  7.27D-06    CP:  1.00D+00  1.01D+00
 E= -2107.89090941606     Delta-E=        0.000001417763 Rises=F Damp=F
 DIIS: error= 4.56D-05 at cycle   3 NSaved=   3.
 NSaved= 3 IEnMin= 2 EnMin= -2107.89091083382     IErMin= 2 ErrMin= 2.94D-05
 ErrMax= 4.56D-05  0.00D+00 EMaxC= 1.00D-01 BMatC= 2.24D-06 BMatP= 9.36D-07
 IDIUse=1 WtCom= 1.00D+00 WtEn= 0.00D+00
 Coeff-Com: -0.137D-02 0.609D+00 0.392D+00
 Coeff:     -0.137D-02 0.609D+00 0.392D+00
 Gap=     0.090 Goal=   None    Shift=    0.000
 RMSDP=4.42D-06 MaxDP=3.82D-04 DE= 1.42D-06 OVMax= 5.34D-04

 Cycle  14  Pass 1  IDiag  1:
 RMSU=  1.15D-06    CP:  1.00D+00  1.02D+00  4.16D-01
 E= -2107.89091184886     Delta-E=       -0.000002432802 Rises=F Damp=F
 DIIS: error= 8.67D-06 at cycle   4 NSaved=   4.
 NSaved= 4 IEnMin= 4 EnMin= -2107.89091184886     IErMin= 4 ErrMin= 8.67D-06
 ErrMax= 8.67D-06  0.00D+00 EMaxC= 1.00D-01 BMatC= 2.93D-08 BMatP= 9.36D-07
 IDIUse=1 WtCom= 1.00D+00 WtEn= 0.00D+00
 Coeff-Com: -0.466D-02 0.356D+00 0.237D+00 0.411D+00
 Coeff:     -0.466D-02 0.356D+00 0.237D+00 0.411D+00
 Gap=     0.090 Goal=   None    Shift=    0.000
 RMSDP=5.59D-07 MaxDP=4.82D-05 DE=-2.43D-06 OVMax= 5.75D-05

 Cycle  15  Pass 1  IDiag  1:
 RMSU=  4.63D-07    CP:  1.00D+00  1.02D+00  4.41D-01  7.77D-01
 E= -2107.89091187723     Delta-E=       -0.000000028366 Rises=F Damp=F
 DIIS: error= 3.03D-06 at cycle   5 NSaved=   5.
 NSaved= 5 IEnMin= 5 EnMin= -2107.89091187723     IErMin= 5 ErrMin= 3.03D-06
 ErrMax= 3.03D-06  0.00D+00 EMaxC= 1.00D-01 BMatC= 2.21D-09 BMatP= 2.93D-08
 IDIUse=1 WtCom= 1.00D+00 WtEn= 0.00D+00
 Coeff-Com: -0.308D-02 0.190D+00 0.126D+00 0.258D+00 0.429D+00
 Coeff:     -0.308D-02 0.190D+00 0.126D+00 0.258D+00 0.429D+00
 Gap=     0.090 Goal=   None    Shift=    0.000
 RMSDP=1.98D-07 MaxDP=1.05D-05 DE=-2.84D-08 OVMax= 1.95D-05

 Cycle  16  Pass 1  IDiag  1:
 RMSU=  1.73D-07    CP:  1.00D+00  1.02D+00  4.42D-01  8.60D-01  1.00D+00
 E= -2107.89091187975     Delta-E=       -0.000000002523 Rises=F Damp=F
 DIIS: error= 4.07D-07 at cycle   6 NSaved=   6.
 NSaved= 6 IEnMin= 6 EnMin= -2107.89091187975     IErMin= 6 ErrMin= 4.07D-07
 ErrMax= 4.07D-07  0.00D+00 EMaxC= 1.00D-01 BMatC= 9.17D-11 BMatP= 2.21D-09
 IDIUse=1 WtCom= 1.00D+00 WtEn= 0.00D+00
 Coeff-Com:  0.561D-03-0.532D-01-0.371D-01-0.795D-01-0.278D-02 0.117D+01
 Coeff:      0.561D-03-0.532D-01-0.371D-01-0.795D-01-0.278D-02 0.117D+01
 Gap=     0.090 Goal=   None    Shift=    0.000
 RMSDP=2.27D-07 MaxDP=1.11D-05 DE=-2.52D-09 OVMax= 4.82D-05

 Cycle  17  Pass 1  IDiag  1:
 RMSU=  7.73D-08    CP:  1.00D+00  1.02D+00  4.50D-01  9.69D-01  1.31D+00
                    CP:  1.44D+00
 E= -2107.89091188033     Delta-E=       -0.000000000579 Rises=F Damp=F
 DIIS: error= 1.85D-07 at cycle   7 NSaved=   7.
 NSaved= 7 IEnMin= 7 EnMin= -2107.89091188033     IErMin= 7 ErrMin= 1.85D-07
 ErrMax= 1.85D-07  0.00D+00 EMaxC= 1.00D-01 BMatC= 7.45D-11 BMatP= 9.17D-11
 IDIUse=1 WtCom= 1.00D+00 WtEn= 0.00D+00
 Coeff-Com:  0.768D-03-0.588D-01-0.402D-01-0.881D-01-0.882D-01 0.704D+00
 Coeff-Com:  0.570D+00
 Coeff:      0.768D-03-0.588D-01-0.402D-01-0.881D-01-0.882D-01 0.704D+00
 Coeff:      0.570D+00
 Gap=     0.090 Goal=   None    Shift=    0.000
 RMSDP=6.64D-08 MaxDP=4.01D-06 DE=-5.79D-10 OVMax= 1.15D-05

 Cycle  18  Pass 1  IDiag  1:
 RMSU=  2.77D-08    CP:  1.00D+00  1.02D+00  4.52D-01  9.99D-01  1.38D+00
                    CP:  1.62D+00  1.06D+00
 E= -2107.89091188044     Delta-E=       -0.000000000112 Rises=F Damp=F
 DIIS: error= 5.27D-08 at cycle   8 NSaved=   8.
 NSaved= 8 IEnMin= 8 EnMin= -2107.89091188044     IErMin= 8 ErrMin= 5.27D-08
 ErrMax= 5.27D-08  0.00D+00 EMaxC= 1.00D-01 BMatC= 4.90D-12 BMatP= 7.45D-11
 IDIUse=1 WtCom= 1.00D+00 WtEn= 0.00D+00
 Coeff-Com:  0.296D-03-0.215D-01-0.148D-01-0.338D-01-0.461D-01 0.228D+00
 Coeff-Com:  0.279D+00 0.609D+00
 Coeff:      0.296D-03-0.215D-01-0.148D-01-0.338D-01-0.461D-01 0.228D+00
 Coeff:      0.279D+00 0.609D+00
 Gap=     0.090 Goal=   None    Shift=    0.000
 RMSDP=1.34D-08 MaxDP=6.28D-07 DE=-1.12D-10 OVMax= 2.78D-06

 Cycle  19  Pass 1  IDiag  1:
 RMSU=  8.07D-09    CP:  1.00D+00  1.02D+00  4.53D-01  1.00D+00  1.39D+00
                    CP:  1.65D+00  1.12D+00  1.00D+00
 E= -2107.89091188050     Delta-E=       -0.000000000058 Rises=F Damp=F
 DIIS: error= 2.30D-08 at cycle   9 NSaved=   9.
 NSaved= 9 IEnMin= 9 EnMin= -2107.89091188050     IErMin= 9 ErrMin= 2.30D-08
 ErrMax= 2.30D-08  0.00D+00 EMaxC= 1.00D-01 BMatC= 8.88D-13 BMatP= 4.90D-12
 IDIUse=1 WtCom= 1.00D+00 WtEn= 0.00D+00
 Coeff-Com:  0.593D-04-0.389D-02-0.269D-02-0.681D-02-0.149D-01 0.209D-01
 Coeff-Com:  0.696D-01 0.334D+00 0.604D+00
 Coeff:      0.593D-04-0.389D-02-0.269D-02-0.681D-02-0.149D-01 0.209D-01
 Coeff:      0.696D-01 0.334D+00 0.604D+00
 Gap=     0.090 Goal=   None    Shift=    0.000
 RMSDP=6.49D-09 MaxDP=6.45D-07 DE=-5.82D-11 OVMax= 7.10D-07

 SCF Done:  E(RPBE1PBE) =  -2107.89091188     A.U. after   19 cycles
            NFock= 19  Conv=0.65D-08     -V/T= 2.0067
 KE= 2.093921715941D+03 PE=-1.207645327196D+04 EE= 4.334971906400D+03
 Leave Link  502 at Fri Jan 24 16:53:36 2025, MaxMem=  3221225472 cpu:            1661.5 elap:              69.3
 (Enter /software/gaussian/G16-C.01/avx2/g16/l601.exe)
 Copying SCF densities to generalized density rwf, IOpCl= 0 IROHF=0.

 **********************************************************************

            Population analysis using the SCF Density.

 **********************************************************************

 Orbital symmetries:
       Occupied  (A) (A) (A) (A) (A) (A) (A) (A) (A) (A) (A) (A)
                 (A) (A) (A) (A) (A) (A) (A) (A) (A) (A) (A) (A)
                 (A) (A) (A) (A) (A) (A) (A) (A) (A) (A) (A) (A)
                 (A) (A) (A) (A) (A) (A) (A) (A) (A) (A) (A) (A)
                 (A) (A) (A) (A) (A) (A) (A) (A) (A) (A) (A) (A)
                 (A) (A) (A) (A) (A) (A) (A) (A) (A) (A) (A) (A)
                 (A) (A) (A) (A) (A) (A) (A) (A) (A) (A) (A) (A)
                 (A) (A) (A) (A) (A) (A) (A) (A) (A) (A) (A) (A)
                 (A) (A) (A) (A) (A) (A) (A) (A) (A) (A) (A) (A)
                 (A) (A) (A) (A) (A) (A) (A) (A) (A) (A) (A) (A)
                 (A)
       Virtual   (A) (A) (A) (A) (A) (A) (A) (A) (A) (A) (A) (A)
                 (A) (A) (A) (A) (A) (A) (A) (A) (A) (A) (A) (A)
                 (A) (A) (A) (A) (A) (A) (A) (A) (A) (A) (A) (A)
                 (A) (A) (A) (A) (A) (A) (A) (A) (A) (A) (A) (A)
                 (A) (A) (A) (A) (A) (A) (A) (A) (A) (A) (A) (A)
[...]
    43  H   -0.000000   0.000000  -0.000000   0.000000   0.000000  -0.000000
    44  H    0.000187   0.000002   0.000000  -0.000000  -0.000000   0.000000
    45  H   -0.019226   0.016780   0.000736  -0.000162   0.000018  -0.000002
    46  H   -0.001159  -0.000002   0.002760   0.000258  -0.022562   0.380499
    47  H    0.000931  -0.000004  -0.000736   0.000003  -0.048247   0.433096
    48  H    0.000046   0.000000   0.000176   0.000007  -0.044246   0.391052
    49  H    0.000418  -0.000001  -0.000057   0.000038  -0.000639  -0.000356
              31         32         33         34         35         36
     1  C    0.410655   0.399859   0.000024  -0.000001   0.000000  -0.000000
     2  N   -0.105603  -0.039761  -0.000109  -0.000027  -0.000000  -0.000000
     3  C   -0.019935   0.004582   0.003348  -0.000189   0.000189  -0.000022
     4  B    0.046977  -0.008344  -0.054800  -0.005244  -0.000519   0.000079
     5  C   -0.001459   0.000063   0.385825   0.001612  -0.001510   0.011706
     6  C   -0.000103   0.000000  -0.092985   0.376213  -0.043300  -0.031378
     7  C   -0.000009   0.000000  -0.024560  -0.110255   0.406264   0.364916
     8  C    0.000000  -0.000000   0.000122   0.004645  -0.068969  -0.020632
     9  C    0.000000  -0.000000   0.000017  -0.000819  -0.003202  -0.012418
    10  C    0.000000  -0.000000   0.000022   0.000114  -0.000216   0.000355
    11  C   -0.000314   0.000478  -0.000808   0.002118  -0.000125   0.000131
    12  C    0.000187   0.000002  -0.000095  -0.000478   0.000016   0.000005
    13  C   -0.000022   0.000008   0.000461   0.000228   0.000006  -0.000008
    14  F    0.000000  -0.000000  -0.000332   0.002062  -0.000005   0.000006
    15  F   -0.000000   0.000000  -0.000015  -0.000141  -0.000000   0.000000
    16  F    0.000000   0.000000  -0.000002   0.000012  -0.000000  -0.000000
    17  C    0.000004  -0.000013  -0.000163  -0.000142   0.000001  -0.000005
    18  C    0.000002   0.000008  -0.000058   0.000006  -0.000000   0.000002
    19  C    0.000000  -0.000000  -0.000003  -0.000000  -0.000000   0.000000
    20  F    0.000000  -0.000000   0.000000   0.000000   0.000000  -0.000000
    21  F   -0.000000   0.000000  -0.000000  -0.000000  -0.000000  -0.000000
    22  F    0.000000  -0.000000  -0.000000   0.000000  -0.000000   0.000000
    23  C   -0.000111  -0.000018  -0.001016  -0.000016   0.000000  -0.000004
    24  C   -0.002713   0.000129   0.011171   0.000530  -0.000009   0.000032
    25  C    0.001025   0.000331  -0.002417  -0.000039  -0.000006  -0.000010
    26  F    0.000002  -0.000000  -0.000059  -0.000000   0.000000  -0.000000
    27  F   -0.000175  -0.000003   0.005831  -0.000017  -0.000002  -0.000050
    28  F   -0.000324  -0.000087   0.000323   0.000000  -0.000000  -0.000000
    29  C    0.303971   0.012716   0.000504  -0.000309  -0.000082  -0.000026
    30  C   -0.059767   0.000289  -0.000774  -0.000132   0.000626  -0.000007
    31  S   15.592058  -0.074252  -0.000225  -0.000006   0.000001   0.000000
    32  H   -0.074252   0.592803  -0.000000  -0.000001  -0.000000  -0.000000
    33  H   -0.000225  -0.000000   0.664218   0.013772   0.001566   0.010455
    34  H   -0.000006  -0.000001   0.013772   0.618215   0.001489   0.008309
    35  H    0.000001  -0.000000   0.001566   0.001489   0.658297  -0.034206
    36  H    0.000000  -0.000000   0.010455   0.008309  -0.034206   0.613171
    37  H    0.000000  -0.000000   0.000224   0.004230  -0.005467   0.009007
    38  H    0.000000  -0.000000   0.000704   0.000984   0.011223  -0.006269
    39  H    0.000000  -0.000000   0.000003   0.000085   0.007163  -0.000349
    40  H    0.000000  -0.000000   0.000013   0.000008  -0.000383   0.005613
    41  H    0.000000  -0.000000  -0.000000  -0.000001   0.000053  -0.000001
    42  H   -0.000000   0.000000  -0.000001   0.000003  -0.000021   0.000074
    43  H   -0.000000  -0.000000   0.000000  -0.000011   0.000082  -0.000012
    44  H    0.000000  -0.000000  -0.000001  -0.000002   0.000000  -0.000000
    45  H    0.000000  -0.000001   0.000005  -0.000000   0.000000  -0.000000
    46  H   -0.001570  -0.000002  -0.000999  -0.000013  -0.000021   0.000020
    47  H    0.004785   0.000030  -0.003186  -0.000235  -0.000282   0.000097
    48  H   -0.006048  -0.000021   0.000464   0.000060  -0.000044   0.000010
    49  H   -0.000561   0.000070   0.007694   0.004500   0.000121  -0.000016
              37         38         39         40         41         42
     1  C    0.000000   0.000000   0.000000  -0.000000   0.000000  -0.000000
     2  N   -0.000000  -0.000000   0.000000  -0.000000   0.000000   0.000000
     3  C    0.000008   0.000025   0.000000  -0.000000   0.000000  -0.000000
     4  B    0.000434  -0.000121  -0.000012   0.000029   0.000000  -0.000002
     5  C    0.000482   0.006220   0.000166  -0.000338   0.000001   0.000013
     6  C    0.005724  -0.003861  -0.000762   0.001467   0.000036  -0.000081
     7  C   -0.043907  -0.029865  -0.002414  -0.001687  -0.000585  -0.000283
     8  C    0.400004   0.393880  -0.038530  -0.041036   0.010194  -0.001065
     9  C   -0.045922  -0.037073   0.397285   0.401632  -0.039433  -0.040286
    10  C   -0.006135  -0.007922  -0.038706  -0.038538   0.401755   0.406777
    11  C    0.000006  -0.000196  -0.000000  -0.000001  -0.000000   0.000000
    12  C    0.000011   0.000139   0.000000  -0.000000   0.000000   0.000000
    13  C   -0.000020   0.000198   0.000000  -0.000000   0.000000   0.000000
    14  F    0.000118   0.000222  -0.000000  -0.000000   0.000000  -0.000000
    15  F    0.000000   0.000002  -0.000000  -0.000000   0.000000  -0.000000
    16  F   -0.000001  -0.000002  -0.000000  -0.000000   0.000000  -0.000000
    17  C   -0.000003   0.000012   0.000000   0.000000   0.000000  -0.000000
    18  C    0.000000  -0.000007  -0.000000  -0.000000  -0.000000   0.000000
    19  C    0.000000  -0.000000  -0.000000   0.000000   0.000000   0.000000
    20  F   -0.000000  -0.000000   0.000000   0.000000  -0.000000   0.000000
    21  F    0.000000  -0.000000   0.000000   0.000000   0.000000   0.000000
    22  F    0.000000   0.000000  -0.000000  -0.000000  -0.000000  -0.000000
    23  C   -0.000000   0.000002   0.000000   0.000000   0.000000  -0.000000
    24  C    0.000001  -0.000031  -0.000000  -0.000000  -0.000000   0.000000
    25  C    0.000000  -0.000011  -0.000000   0.000000  -0.000000   0.000000
    26  F    0.000000   0.000000  -0.000000   0.000000   0.000000  -0.000000
    27  F   -0.000000  -0.000002   0.000000   0.000000   0.000000   0.000000
    28  F    0.000000  -0.000000  -0.000000   0.000000  -0.000000  -0.000000
    29  C    0.000000  -0.000003  -0.000000   0.000000  -0.000000   0.000000
    30  C    0.000002   0.000008   0.000000   0.000000   0.000000  -0.000000
    31  S    0.000000   0.000000   0.000000   0.000000   0.000000  -0.000000
    32  H   -0.000000  -0.000000  -0.000000  -0.000000  -0.000000   0.000000
    33  H    0.000224   0.000704   0.000003   0.000013  -0.000000  -0.000001
    34  H    0.004230   0.000984   0.000085   0.000008  -0.000001   0.000003
    35  H   -0.005467   0.011223   0.007163  -0.000383   0.000053  -0.000021
    36  H    0.009007  -0.006269  -0.000349   0.005613  -0.000001   0.000074
    37  H    0.618431  -0.028996  -0.007405   0.010172  -0.000092  -0.000101
    38  H   -0.028996   0.590837   0.009769  -0.006566   0.000063   0.004244
    39  H   -0.007405   0.009769   0.632770  -0.036716  -0.004641   0.008963
    40  H    0.010172  -0.006566  -0.036716   0.622008  -0.004788  -0.005735
    41  H   -0.000092   0.000063  -0.004641  -0.004788   0.585042  -0.027143
    42  H   -0.000101   0.004244   0.008963  -0.005735  -0.027143   0.568892
    43  H    0.004864   0.000095  -0.006006   0.008879  -0.027819  -0.026839
    44  H    0.000000   0.000001   0.000000   0.000000   0.000000  -0.000000
    45  H    0.000000   0.000000   0.000000  -0.000000   0.000000  -0.000000
    46  H   -0.000000  -0.000000   0.000000   0.000000  -0.000000   0.000000
    47  H    0.000001  -0.000011  -0.000001   0.000001  -0.000000  -0.000000
    48  H   -0.000000  -0.000000  -0.000000  -0.000000  -0.000000   0.000000
    49  H   -0.000035   0.000088   0.000000  -0.000001   0.000000   0.000000
              43         44         45         46         47         48
     1  C   -0.000000  -0.000000  -0.000007   0.000802  -0.000190   0.000255
     2  N   -0.000000   0.000000   0.000031  -0.000222   0.000374  -0.000265
     3  C   -0.000000   0.000067   0.000053  -0.018046   0.001755   0.006214
     4  B    0.000002  -0.000310  -0.000172   0.009414  -0.012839  -0.002404
     5  C   -0.000018   0.000064   0.000122   0.001415   0.007267   0.001323
     6  C    0.000061   0.000018   0.000006  -0.000142   0.006963   0.000662
     7  C    0.000036   0.000001   0.000001  -0.000032  -0.000728   0.000004
     8  C   -0.002981  -0.000002  -0.000000   0.000002   0.000338   0.000005
     9  C   -0.038614   0.000000   0.000000  -0.000000  -0.000021  -0.000000
    10  C    0.403378  -0.000000  -0.000000   0.000000   0.000000   0.000000
    11  C   -0.000000   0.014921   0.013079   0.000181   0.001221  -0.000088
    12  C   -0.000000  -0.046538  -0.004454   0.000003  -0.000067  -0.000004
    13  C   -0.000000  -0.022780   0.000233   0.000001  -0.000005   0.000001
    14  F   -0.000000   0.000422   0.000001   0.000000   0.000001  -0.000000
    15  F   -0.000000  -0.000013   0.000000   0.000000   0.000001  -0.000000
    16  F   -0.000000   0.016854   0.000002   0.000000   0.000000  -0.000000
    17  C    0.000000   0.456854   0.015925  -0.000001  -0.000003   0.000000
    18  C   -0.000000  -0.097150  -0.090545   0.000003   0.000002  -0.000000
    19  C    0.000000  -0.008479  -0.010860   0.000000  -0.000000  -0.000000
    20  F    0.000000   0.010965   0.000311   0.000000   0.000000   0.000000
    21  F    0.000000   0.000035  -0.000144   0.000000  -0.000000  -0.000000
    22  F   -0.000000   0.000330   0.011751   0.000000   0.000000  -0.000000
    23  C    0.000000   0.016495   0.463237  -0.000031   0.000001   0.000001
    24  C   -0.000000  -0.003740  -0.058601   0.000623  -0.000143   0.000046
    25  C   -0.000000   0.000187  -0.019226  -0.001159   0.000931   0.000046
    26  F    0.000000   0.000002   0.016780  -0.000002  -0.000004   0.000000
    27  F   -0.000000   0.000000   0.000736   0.002760  -0.000736   0.000176
    28  F    0.000000  -0.000000  -0.000162   0.000258   0.000003   0.000007
    29  C    0.000000  -0.000000   0.000018  -0.022562  -0.048247  -0.044246
    30  C   -0.000000   0.000000  -0.000002   0.380499   0.433096   0.391052
    31  S   -0.000000   0.000000   0.000000  -0.001570   0.004785  -0.006048
    32  H   -0.000000  -0.000000  -0.000001  -0.000002   0.000030  -0.000021
    33  H    0.000000  -0.000001   0.000005  -0.000999  -0.003186   0.000464
    34  H   -0.000011  -0.000002  -0.000000  -0.000013  -0.000235   0.000060
    35  H    0.000082   0.000000   0.000000  -0.000021  -0.000282  -0.000044
    36  H   -0.000012  -0.000000  -0.000000   0.000020   0.000097   0.000010
    37  H    0.004864   0.000000   0.000000  -0.000000   0.000001  -0.000000
    38  H    0.000095   0.000001   0.000000  -0.000000  -0.000011  -0.000000
    39  H   -0.006006   0.000000   0.000000   0.000000  -0.000001  -0.000000
    40  H    0.008879   0.000000  -0.000000   0.000000   0.000001  -0.000000
    41  H   -0.027819   0.000000   0.000000  -0.000000  -0.000000  -0.000000
    42  H   -0.026839  -0.000000  -0.000000   0.000000  -0.000000   0.000000
    43  H    0.577450   0.000000   0.000000   0.000000   0.000000   0.000000
    44  H    0.000000   0.526205  -0.000010  -0.000000  -0.000000   0.000000
    45  H    0.000000  -0.000010   0.526584  -0.000001  -0.000000   0.000000
    46  H    0.000000  -0.000000  -0.000001   0.603005  -0.022873  -0.040660
    47  H    0.000000  -0.000000  -0.000000  -0.022873   0.484919  -0.014765
    48  H    0.000000   0.000000   0.000000  -0.040660  -0.014765   0.605283
    49  H   -0.000000   0.000004   0.000017  -0.000166   0.000103   0.000172
              49
     1  C    0.000277
     2  N   -0.008756
     3  C   -0.035146
     4  B    0.418239
     5  C   -0.057383
     6  C   -0.007456
     7  C    0.002846
     8  C   -0.000148
     9  C    0.000014
    10  C   -0.000000
    11  C   -0.020828
    12  C   -0.040902
    13  C    0.026415
    14  F   -0.009414
    15  F   -0.013947
    16  F   -0.000459
    17  C    0.003485
    18  C   -0.001163
    19  C   -0.000014
    20  F    0.000000
    21  F   -0.000000
    22  F   -0.000000
    23  C   -0.000109
    24  C    0.019036
    25  C    0.000418
    26  F   -0.000001
    27  F   -0.000057
    28  F    0.000038
    29  C   -0.000639
    30  C   -0.000356
    31  S   -0.000561
    32  H    0.000070
    33  H    0.007694
    34  H    0.004500
    35  H    0.000121
    36  H   -0.000016
    37  H   -0.000035
    38  H    0.000088
    39  H    0.000000
    40  H   -0.000001
    41  H    0.000000
    42  H    0.000000
    43  H   -0.000000
    44  H    0.000004
    45  H    0.000017
    46  H   -0.000166
    47  H    0.000103
    48  H    0.000172
    49  H    0.739199
 Mulliken charges:
               1
     1  C   -0.100980
     2  N   -0.189025
     3  C   -0.051676
     4  B   -0.193570
     5  C   -0.322458
     6  C   -0.062133
     7  C   -0.115059
     8  C   -0.230400
     9  C   -0.145612
    10  C   -0.351108
    11  C    0.023096
    12  C    0.033293
    13  C    0.453848
    14  F   -0.147128
    15  F   -0.150405
    16  F   -0.193285
    17  C   -0.349922
    18  C    0.186160
    19  C    0.432024
    20  F   -0.175211
    21  F   -0.170716
    22  F   -0.175155
    23  C   -0.360743
    24  C    0.062945
    25  C    0.491385
    26  F   -0.189143
    27  F   -0.159369
    28  F   -0.153234
    29  C    0.033491
    30  C   -0.361730
    31  S   -0.086469
    32  H    0.111133
    33  H    0.075844
    34  H    0.078881
    35  H    0.071270
    36  H    0.081427
    37  H    0.084366
    38  H    0.102220
    39  H    0.079337
    40  H    0.085966
    41  H    0.107358
    42  H    0.112592
    43  H    0.107450
    44  H    0.135601
    45  H    0.135292
    46  H    0.109517
    47  H    0.162448
    48  H    0.102764
    49  H   -0.025178
 Sum of Mulliken charges =  -1.00000
 Mulliken charges with hydrogens summed into heavy atoms:
               1
     1  C    0.010154
     2  N   -0.189025
     3  C   -0.051676
     4  B   -0.218748
     5  C   -0.246614
     6  C    0.016748
     7  C    0.037638
     8  C   -0.043814
     9  C    0.019691
    10  C   -0.023708
    11  C    0.023096
    12  C    0.033293
    13  C    0.453848
    14  F   -0.147128
    15  F   -0.150405
    16  F   -0.193285
    17  C   -0.214321
    18  C    0.186160
    19  C    0.432024
    20  F   -0.175211
    21  F   -0.170716
    22  F   -0.175155
    23  C   -0.225451
    24  C    0.062945
    25  C    0.491385
    26  F   -0.189143
    27  F   -0.159369
    28  F   -0.153234
    29  C    0.033491
    30  C    0.012998
    31  S   -0.086469
 Electronic spatial extent (au):  <R**2>=          15102.1520
 Charge=             -1.0000 electrons
 Dipole moment (field-independent basis, Debye):
    X=              0.0798    Y=             -2.4404    Z=             -2.6046  Tot=              3.5701
 Quadrupole moment (field-independent basis, Debye-Ang):
   XX=           -218.6365   YY=           -220.7820   ZZ=           -203.7515
   XY=              5.5352   XZ=              3.7883   YZ=             -0.8145
 Traceless Quadrupole moment (field-independent basis, Debye-Ang):
   XX=             -4.2465   YY=             -6.3920   ZZ=             10.6385
   XY=              5.5352   XZ=              3.7883   YZ=             -0.8145
 Octapole moment (field-independent basis, Debye-Ang**2):
  XXX=             90.3221  YYY=            -84.6456  ZZZ=            -22.1338  XYY=             57.8713
  XXY=             52.0789  XXZ=             22.8848  XZZ=             36.3476  YZZ=            -15.7232
  YYZ=             -3.5423  XYZ=             10.1419
 Hexadecapole moment (field-independent basis, Debye-Ang**3):
 XXXX=          -9849.7936 YYYY=          -8372.6558 ZZZZ=          -2487.3227 XXXY=           -145.7977
 XXXZ=           -157.0983 YYYX=           -141.8940 YYYZ=           -150.7773 ZZZX=            -86.7491
 ZZZY=           -112.1477 XXYY=          -3065.7761 XXZZ=          -1945.4980 YYZZ=          -1737.8696
 XXYZ=           -121.7380 YYXZ=             11.5667 ZZXY=            -44.1342
 N-N= 3.534130160729D+03 E-N=-1.207664245352D+04  KE= 2.102501484174D+03
 No NMR shielding tensors so no spin-rotation constants.
 Leave Link  601 at Fri Jan 24 17:51:02 2025, MaxMem=  3221225472 cpu:              18.5 elap:               0.9
 (Enter /software/gaussian/G16-C.01/avx2/g16/l9999.exe)
 Unable to Open any file for archive entry.
 1\1\GINC-NODE23\SP\RPBE1PBE\def2TZVP\C19H18B1F9N1S1(1-)\LAPLAZA\24-Jan
 -2025\0\\#p def2tzvp pbe1pbe integral=ultrafinegrid geom=allcheck gues
 s=read em=gd3bj\\with_hydride\\-1,1\C,0,-3.134031656,-3.6254303282,1.7
 839718709\N,0,-2.5027777018,-2.5014015877,1.8090045526\C,0,-1.44569482
 84,-2.4525081732,0.9087798277\B,0,-0.5508006355,-1.0979106726,0.914112
 3025\C,0,0.6476099648,-0.955028512,-0.163516873\C,0,1.9537872946,-0.91
 64879542,0.138641061\C,0,3.076395047,-0.7000620453,-0.8323723253\C,0,3
 .8299217489,0.6071712838,-0.591603484\C,0,4.9951484372,0.8364686908,-1
 .5440860445\C,0,5.7338559174,2.1429500963,-1.2984026695\C,0,-1.5226132
 722,0.2292499807,0.7894371286\C,0,-1.3715790158,1.3361036113,1.6672091
 936\C,0,-0.3302353005,1.3488476626,2.7709649655\F,0,0.9107831374,1.150
 3435857,2.3318169772\F,0,-0.5812962885,0.4661366234,3.7381187189\F,0,-
 0.3001842614,2.5562339419,3.3899003682\C,0,-2.1666212498,2.4780243545,
 1.5929212574\C,0,-3.1587608373,2.5838703636,0.626275423\C,0,-4.0493720
 861,3.7829119649,0.5844456484\F,0,-3.4140230599,4.8992009914,0.9710718
 459\F,0,-5.1145969822,3.658588292,1.3953251994\F,0,-4.5365960694,4.011
 3181647,-0.6437041117\C,0,-3.3316900699,1.540082228,-0.2707930595\C,0,
 -2.5321233654,0.3985677364,-0.1958097691\C,0,-2.8682598045,-0.65358478
 86,-1.2355044602\F,0,-3.5287433917,-0.1010810328,-2.2812132239\F,0,-1.
 8080462594,-1.2564265982,-1.768010118\F,0,-3.6822525772,-1.6015252092,
 -0.7634892921\C,0,-1.2957474943,-3.6204859523,0.1919154411\C,0,-0.3201
 779348,-3.9603277459,-0.8837091737\S,0,-2.5084669616,-4.7835878767,0.6
 580305843\H,0,-3.9960220994,-3.8666871361,2.4130647679\H,0,0.412561464
 7,-0.8305352533,-1.2332005474\H,0,2.2487603408,-1.009302386,1.19402848
 14\H,0,3.803397233,-1.5349651509,-0.7743160274\H,0,2.6786240741,-0.708
 4864694,-1.8631189675\H,0,4.1979576125,0.6272177432,0.4507222208\H,0,3
 .1149363486,1.4456319387,-0.6661353536\H,0,5.7014648578,-0.0099372061,
 -1.463678718\H,0,4.6220572077,0.8121143808,-2.5839658678\H,0,6.5700532
 205,2.2839025969,-2.0019539836\H,0,5.058049069,3.0070459048,-1.4056469
 632\H,0,6.1471234232,2.1801944928,-0.277051109\H,0,-2.0079425403,3.298
 2052284,2.2917620532\H,0,-4.0913639092,1.6219286818,-1.0474131357\H,0,
 -0.7785352263,-3.8989103528,-1.8857857191\H,0,0.5129501528,-3.24592651
 21,-0.8502817644\H,0,0.089189227,-4.9767102639,-0.764067412\H,0,-0.040
 62883,-1.0980364019,2.0263497038\\Version=ES64L-G16RevC.01\State=1-A\H
 F=-2110.1532436\RMSD=3.997e-09\Dipole=0.2493701,1.0103149,-0.9433929\Q
 uadrupole=-0.7576486,-7.678617,8.4362656,2.4606689,-1.0691404,-0.49013
 24\PG=C01 [X(C19H18B1F9N1S1)]\\@
 The archive entry for this job was punched.


 We find comfort among those who agree with us -- growth among those who don't.
 -- Frank A. Clark
 Job cpu time:       0 days  4 hours 21 minutes 26.4 seconds.
 Elapsed time:       0 days  0 hours 10 minutes 54.0 seconds.
 File lengths (MBytes):  RWF=    603 Int=      0 D2E=      0 Chk=     82 Scr=      1
 Normal termination of Gaussian 16 at Fri Jan 24 17:51:03 2025.
